V -t * -v 1.0a5 -a 0
A -t * -n 1 -p 0 -o 0x7fffffff -c 30 -a 1
A -t * -h 1 -m 1073741823 -s 0
n -t * -a 4 -s 4 -S UP -v circle -c black -i black
n -t * -a 0 -s 0 -S UP -v circle -c black -i black
n -t * -a 5 -s 5 -S UP -v circle -c black -i black
n -t * -a 1 -s 1 -S UP -v circle -c black -i black
n -t * -a 2 -s 2 -S UP -v circle -c black -i black
n -t * -a 3 -s 3 -S UP -v circle -c black -i black
l -t * -s 0 -d 1 -S UP -r 10000000 -D 0.01 -c black
l -t * -s 4 -d 1 -S UP -r 10000000 -D 0.01 -c black
l -t * -s 1 -d 2 -S UP -r 10000000 -D 0.01 -c black
l -t * -s 2 -d 3 -S UP -r 10000000 -D 0.01 -c black
l -t * -s 2 -d 5 -S UP -r 10000000 -D 0.01 -c black
+ -t 0.1 -s 0 -d 1 -p tcp -e 1000 -c 1 -i 0 -a 1 -x {0.0 3.0 0 ------- null}
- -t 0.1 -s 0 -d 1 -p tcp -e 1000 -c 1 -i 0 -a 1 -x {0.0 3.0 0 ------- null}
h -t 0.1 -s 0 -d 1 -p tcp -e 1000 -c 1 -i 0 -a 1 -x {0.0 3.0 -1 ------- null}
r -t 0.1108 -s 0 -d 1 -p tcp -e 1000 -c 1 -i 0 -a 1 -x {0.0 3.0 0 ------- null}
+ -t 0.1108 -s 1 -d 2 -p tcp -e 1000 -c 1 -i 0 -a 1 -x {0.0 3.0 0 ------- null}
- -t 0.1108 -s 1 -d 2 -p tcp -e 1000 -c 1 -i 0 -a 1 -x {0.0 3.0 0 ------- null}
h -t 0.1108 -s 1 -d 2 -p tcp -e 1000 -c 1 -i 0 -a 1 -x {0.0 3.0 -1 ------- null}
r -t 0.1216 -s 1 -d 2 -p tcp -e 1000 -c 1 -i 0 -a 1 -x {0.0 3.0 0 ------- null}
+ -t 0.1216 -s 2 -d 3 -p tcp -e 1000 -c 1 -i 0 -a 1 -x {0.0 3.0 0 ------- null}
- -t 0.1216 -s 2 -d 3 -p tcp -e 1000 -c 1 -i 0 -a 1 -x {0.0 3.0 0 ------- null}
h -t 0.1216 -s 2 -d 3 -p tcp -e 1000 -c 1 -i 0 -a 1 -x {0.0 3.0 -1 ------- null}
r -t 0.1324 -s 2 -d 3 -p tcp -e 1000 -c 1 -i 0 -a 1 -x {0.0 3.0 0 ------- null}
+ -t 0.1324 -s 3 -d 2 -p ack -e 40 -c 1 -i 1 -a 1 -x {3.0 0.0 0 ------- null}
- -t 0.1324 -s 3 -d 2 -p ack -e 40 -c 1 -i 1 -a 1 -x {3.0 0.0 0 ------- null}
h -t 0.1324 -s 3 -d 2 -p ack -e 40 -c 1 -i 1 -a 1 -x {3.0 0.0 -1 ------- null}
r -t 0.142432 -s 3 -d 2 -p ack -e 40 -c 1 -i 1 -a 1 -x {3.0 0.0 0 ------- null}
+ -t 0.142432 -s 2 -d 1 -p ack -e 40 -c 1 -i 1 -a 1 -x {3.0 0.0 0 ------- null}
- -t 0.142432 -s 2 -d 1 -p ack -e 40 -c 1 -i 1 -a 1 -x {3.0 0.0 0 ------- null}
h -t 0.142432 -s 2 -d 1 -p ack -e 40 -c 1 -i 1 -a 1 -x {3.0 0.0 -1 ------- null}
r -t 0.152464 -s 2 -d 1 -p ack -e 40 -c 1 -i 1 -a 1 -x {3.0 0.0 0 ------- null}
+ -t 0.152464 -s 1 -d 0 -p ack -e 40 -c 1 -i 1 -a 1 -x {3.0 0.0 0 ------- null}
- -t 0.152464 -s 1 -d 0 -p ack -e 40 -c 1 -i 1 -a 1 -x {3.0 0.0 0 ------- null}
h -t 0.152464 -s 1 -d 0 -p ack -e 40 -c 1 -i 1 -a 1 -x {3.0 0.0 -1 ------- null}
r -t 0.162496 -s 1 -d 0 -p ack -e 40 -c 1 -i 1 -a 1 -x {3.0 0.0 0 ------- null}
+ -t 0.162496 -s 0 -d 1 -p tcp -e 1000 -c 1 -i 2 -a 1 -x {0.0 3.0 1 ------- null}
- -t 0.162496 -s 0 -d 1 -p tcp -e 1000 -c 1 -i 2 -a 1 -x {0.0 3.0 1 ------- null}
h -t 0.162496 -s 0 -d 1 -p tcp -e 1000 -c 1 -i 2 -a 1 -x {0.0 3.0 -1 ------- null}
r -t 0.173296 -s 0 -d 1 -p tcp -e 1000 -c 1 -i 2 -a 1 -x {0.0 3.0 1 ------- null}
+ -t 0.173296 -s 1 -d 2 -p tcp -e 1000 -c 1 -i 2 -a 1 -x {0.0 3.0 1 ------- null}
- -t 0.173296 -s 1 -d 2 -p tcp -e 1000 -c 1 -i 2 -a 1 -x {0.0 3.0 1 ------- null}
h -t 0.173296 -s 1 -d 2 -p tcp -e 1000 -c 1 -i 2 -a 1 -x {0.0 3.0 -1 ------- null}
r -t 0.184096 -s 1 -d 2 -p tcp -e 1000 -c 1 -i 2 -a 1 -x {0.0 3.0 1 ------- null}
+ -t 0.184096 -s 2 -d 3 -p tcp -e 1000 -c 1 -i 2 -a 1 -x {0.0 3.0 1 ------- null}
- -t 0.184096 -s 2 -d 3 -p tcp -e 1000 -c 1 -i 2 -a 1 -x {0.0 3.0 1 ------- null}
h -t 0.184096 -s 2 -d 3 -p tcp -e 1000 -c 1 -i 2 -a 1 -x {0.0 3.0 -1 ------- null}
r -t 0.194896 -s 2 -d 3 -p tcp -e 1000 -c 1 -i 2 -a 1 -x {0.0 3.0 1 ------- null}
+ -t 0.194896 -s 3 -d 2 -p ack -e 40 -c 1 -i 3 -a 1 -x {3.0 0.0 1 ------- null}
- -t 0.194896 -s 3 -d 2 -p ack -e 40 -c 1 -i 3 -a 1 -x {3.0 0.0 1 ------- null}
h -t 0.194896 -s 3 -d 2 -p ack -e 40 -c 1 -i 3 -a 1 -x {3.0 0.0 -1 ------- null}
r -t 0.204928 -s 3 -d 2 -p ack -e 40 -c 1 -i 3 -a 1 -x {3.0 0.0 1 ------- null}
+ -t 0.204928 -s 2 -d 1 -p ack -e 40 -c 1 -i 3 -a 1 -x {3.0 0.0 1 ------- null}
- -t 0.204928 -s 2 -d 1 -p ack -e 40 -c 1 -i 3 -a 1 -x {3.0 0.0 1 ------- null}
h -t 0.204928 -s 2 -d 1 -p ack -e 40 -c 1 -i 3 -a 1 -x {3.0 0.0 -1 ------- null}
r -t 0.21496 -s 2 -d 1 -p ack -e 40 -c 1 -i 3 -a 1 -x {3.0 0.0 1 ------- null}
+ -t 0.21496 -s 1 -d 0 -p ack -e 40 -c 1 -i 3 -a 1 -x {3.0 0.0 1 ------- null}
- -t 0.21496 -s 1 -d 0 -p ack -e 40 -c 1 -i 3 -a 1 -x {3.0 0.0 1 ------- null}
h -t 0.21496 -s 1 -d 0 -p ack -e 40 -c 1 -i 3 -a 1 -x {3.0 0.0 -1 ------- null}
r -t 0.224992 -s 1 -d 0 -p ack -e 40 -c 1 -i 3 -a 1 -x {3.0 0.0 1 ------- null}
+ -t 0.224992 -s 0 -d 1 -p tcp -e 1000 -c 1 -i 4 -a 1 -x {0.0 3.0 2 ------- null}
- -t 0.224992 -s 0 -d 1 -p tcp -e 1000 -c 1 -i 4 -a 1 -x {0.0 3.0 2 ------- null}
h -t 0.224992 -s 0 -d 1 -p tcp -e 1000 -c 1 -i 4 -a 1 -x {0.0 3.0 -1 ------- null}
+ -t 0.224992 -s 0 -d 1 -p tcp -e 1000 -c 1 -i 5 -a 1 -x {0.0 3.0 3 ------- null}
+ -t 0.224992 -s 0 -d 1 -p tcp -e 1000 -c 1 -i 6 -a 1 -x {0.0 3.0 4 ------- null}
- -t 0.225792 -s 0 -d 1 -p tcp -e 1000 -c 1 -i 5 -a 1 -x {0.0 3.0 3 ------- null}
h -t 0.225792 -s 0 -d 1 -p tcp -e 1000 -c 1 -i 5 -a 1 -x {0.0 3.0 -1 ------- null}
- -t 0.226592 -s 0 -d 1 -p tcp -e 1000 -c 1 -i 6 -a 1 -x {0.0 3.0 4 ------- null}
h -t 0.226592 -s 0 -d 1 -p tcp -e 1000 -c 1 -i 6 -a 1 -x {0.0 3.0 -1 ------- null}
r -t 0.235792 -s 0 -d 1 -p tcp -e 1000 -c 1 -i 4 -a 1 -x {0.0 3.0 2 ------- null}
+ -t 0.235792 -s 1 -d 2 -p tcp -e 1000 -c 1 -i 4 -a 1 -x {0.0 3.0 2 ------- null}
- -t 0.235792 -s 1 -d 2 -p tcp -e 1000 -c 1 -i 4 -a 1 -x {0.0 3.0 2 ------- null}
h -t 0.235792 -s 1 -d 2 -p tcp -e 1000 -c 1 -i 4 -a 1 -x {0.0 3.0 -1 ------- null}
r -t 0.236592 -s 0 -d 1 -p tcp -e 1000 -c 1 -i 5 -a 1 -x {0.0 3.0 3 ------- null}
+ -t 0.236592 -s 1 -d 2 -p tcp -e 1000 -c 1 -i 5 -a 1 -x {0.0 3.0 3 ------- null}
- -t 0.236592 -s 1 -d 2 -p tcp -e 1000 -c 1 -i 5 -a 1 -x {0.0 3.0 3 ------- null}
h -t 0.236592 -s 1 -d 2 -p tcp -e 1000 -c 1 -i 5 -a 1 -x {0.0 3.0 -1 ------- null}
r -t 0.237392 -s 0 -d 1 -p tcp -e 1000 -c 1 -i 6 -a 1 -x {0.0 3.0 4 ------- null}
+ -t 0.237392 -s 1 -d 2 -p tcp -e 1000 -c 1 -i 6 -a 1 -x {0.0 3.0 4 ------- null}
- -t 0.237392 -s 1 -d 2 -p tcp -e 1000 -c 1 -i 6 -a 1 -x {0.0 3.0 4 ------- null}
h -t 0.237392 -s 1 -d 2 -p tcp -e 1000 -c 1 -i 6 -a 1 -x {0.0 3.0 -1 ------- null}
r -t 0.246592 -s 1 -d 2 -p tcp -e 1000 -c 1 -i 4 -a 1 -x {0.0 3.0 2 ------- null}
+ -t 0.246592 -s 2 -d 3 -p tcp -e 1000 -c 1 -i 4 -a 1 -x {0.0 3.0 2 ------- null}
- -t 0.246592 -s 2 -d 3 -p tcp -e 1000 -c 1 -i 4 -a 1 -x {0.0 3.0 2 ------- null}
h -t 0.246592 -s 2 -d 3 -p tcp -e 1000 -c 1 -i 4 -a 1 -x {0.0 3.0 -1 ------- null}
r -t 0.247392 -s 1 -d 2 -p tcp -e 1000 -c 1 -i 5 -a 1 -x {0.0 3.0 3 ------- null}
+ -t 0.247392 -s 2 -d 3 -p tcp -e 1000 -c 1 -i 5 -a 1 -x {0.0 3.0 3 ------- null}
- -t 0.247392 -s 2 -d 3 -p tcp -e 1000 -c 1 -i 5 -a 1 -x {0.0 3.0 3 ------- null}
h -t 0.247392 -s 2 -d 3 -p tcp -e 1000 -c 1 -i 5 -a 1 -x {0.0 3.0 -1 ------- null}
r -t 0.248192 -s 1 -d 2 -p tcp -e 1000 -c 1 -i 6 -a 1 -x {0.0 3.0 4 ------- null}
+ -t 0.248192 -s 2 -d 3 -p tcp -e 1000 -c 1 -i 6 -a 1 -x {0.0 3.0 4 ------- null}
- -t 0.248192 -s 2 -d 3 -p tcp -e 1000 -c 1 -i 6 -a 1 -x {0.0 3.0 4 ------- null}
h -t 0.248192 -s 2 -d 3 -p tcp -e 1000 -c 1 -i 6 -a 1 -x {0.0 3.0 -1 ------- null}
r -t 0.257392 -s 2 -d 3 -p tcp -e 1000 -c 1 -i 4 -a 1 -x {0.0 3.0 2 ------- null}
+ -t 0.257392 -s 3 -d 2 -p ack -e 40 -c 1 -i 7 -a 1 -x {3.0 0.0 2 ------- null}
- -t 0.257392 -s 3 -d 2 -p ack -e 40 -c 1 -i 7 -a 1 -x {3.0 0.0 2 ------- null}
h -t 0.257392 -s 3 -d 2 -p ack -e 40 -c 1 -i 7 -a 1 -x {3.0 0.0 -1 ------- null}
r -t 0.258192 -s 2 -d 3 -p tcp -e 1000 -c 1 -i 5 -a 1 -x {0.0 3.0 3 ------- null}
+ -t 0.258192 -s 3 -d 2 -p ack -e 40 -c 1 -i 8 -a 1 -x {3.0 0.0 3 ------- null}
- -t 0.258192 -s 3 -d 2 -p ack -e 40 -c 1 -i 8 -a 1 -x {3.0 0.0 3 ------- null}
h -t 0.258192 -s 3 -d 2 -p ack -e 40 -c 1 -i 8 -a 1 -x {3.0 0.0 -1 ------- null}
r -t 0.258992 -s 2 -d 3 -p tcp -e 1000 -c 1 -i 6 -a 1 -x {0.0 3.0 4 ------- null}
+ -t 0.258992 -s 3 -d 2 -p ack -e 40 -c 1 -i 9 -a 1 -x {3.0 0.0 4 ------- null}
- -t 0.258992 -s 3 -d 2 -p ack -e 40 -c 1 -i 9 -a 1 -x {3.0 0.0 4 ------- null}
h -t 0.258992 -s 3 -d 2 -p ack -e 40 -c 1 -i 9 -a 1 -x {3.0 0.0 -1 ------- null}
r -t 0.267424 -s 3 -d 2 -p ack -e 40 -c 1 -i 7 -a 1 -x {3.0 0.0 2 ------- null}
+ -t 0.267424 -s 2 -d 1 -p ack -e 40 -c 1 -i 7 -a 1 -x {3.0 0.0 2 ------- null}
- -t 0.267424 -s 2 -d 1 -p ack -e 40 -c 1 -i 7 -a 1 -x {3.0 0.0 2 ------- null}
h -t 0.267424 -s 2 -d 1 -p ack -e 40 -c 1 -i 7 -a 1 -x {3.0 0.0 -1 ------- null}
r -t 0.268224 -s 3 -d 2 -p ack -e 40 -c 1 -i 8 -a 1 -x {3.0 0.0 3 ------- null}
+ -t 0.268224 -s 2 -d 1 -p ack -e 40 -c 1 -i 8 -a 1 -x {3.0 0.0 3 ------- null}
- -t 0.268224 -s 2 -d 1 -p ack -e 40 -c 1 -i 8 -a 1 -x {3.0 0.0 3 ------- null}
h -t 0.268224 -s 2 -d 1 -p ack -e 40 -c 1 -i 8 -a 1 -x {3.0 0.0 -1 ------- null}
r -t 0.269024 -s 3 -d 2 -p ack -e 40 -c 1 -i 9 -a 1 -x {3.0 0.0 4 ------- null}
+ -t 0.269024 -s 2 -d 1 -p ack -e 40 -c 1 -i 9 -a 1 -x {3.0 0.0 4 ------- null}
- -t 0.269024 -s 2 -d 1 -p ack -e 40 -c 1 -i 9 -a 1 -x {3.0 0.0 4 ------- null}
h -t 0.269024 -s 2 -d 1 -p ack -e 40 -c 1 -i 9 -a 1 -x {3.0 0.0 -1 ------- null}
r -t 0.277456 -s 2 -d 1 -p ack -e 40 -c 1 -i 7 -a 1 -x {3.0 0.0 2 ------- null}
+ -t 0.277456 -s 1 -d 0 -p ack -e 40 -c 1 -i 7 -a 1 -x {3.0 0.0 2 ------- null}
- -t 0.277456 -s 1 -d 0 -p ack -e 40 -c 1 -i 7 -a 1 -x {3.0 0.0 2 ------- null}
h -t 0.277456 -s 1 -d 0 -p ack -e 40 -c 1 -i 7 -a 1 -x {3.0 0.0 -1 ------- null}
r -t 0.278256 -s 2 -d 1 -p ack -e 40 -c 1 -i 8 -a 1 -x {3.0 0.0 3 ------- null}
+ -t 0.278256 -s 1 -d 0 -p ack -e 40 -c 1 -i 8 -a 1 -x {3.0 0.0 3 ------- null}
- -t 0.278256 -s 1 -d 0 -p ack -e 40 -c 1 -i 8 -a 1 -x {3.0 0.0 3 ------- null}
h -t 0.278256 -s 1 -d 0 -p ack -e 40 -c 1 -i 8 -a 1 -x {3.0 0.0 -1 ------- null}
r -t 0.279056 -s 2 -d 1 -p ack -e 40 -c 1 -i 9 -a 1 -x {3.0 0.0 4 ------- null}
+ -t 0.279056 -s 1 -d 0 -p ack -e 40 -c 1 -i 9 -a 1 -x {3.0 0.0 4 ------- null}
- -t 0.279056 -s 1 -d 0 -p ack -e 40 -c 1 -i 9 -a 1 -x {3.0 0.0 4 ------- null}
h -t 0.279056 -s 1 -d 0 -p ack -e 40 -c 1 -i 9 -a 1 -x {3.0 0.0 -1 ------- null}
r -t 0.287488 -s 1 -d 0 -p ack -e 40 -c 1 -i 7 -a 1 -x {3.0 0.0 2 ------- null}
+ -t 0.287488 -s 0 -d 1 -p tcp -e 1000 -c 1 -i 10 -a 1 -x {0.0 3.0 5 ------- null}
- -t 0.287488 -s 0 -d 1 -p tcp -e 1000 -c 1 -i 10 -a 1 -x {0.0 3.0 5 ------- null}
h -t 0.287488 -s 0 -d 1 -p tcp -e 1000 -c 1 -i 10 -a 1 -x {0.0 3.0 -1 ------- null}
r -t 0.288288 -s 1 -d 0 -p ack -e 40 -c 1 -i 8 -a 1 -x {3.0 0.0 3 ------- null}
+ -t 0.288288 -s 0 -d 1 -p tcp -e 1000 -c 1 -i 11 -a 1 -x {0.0 3.0 6 ------- null}
- -t 0.288288 -s 0 -d 1 -p tcp -e 1000 -c 1 -i 11 -a 1 -x {0.0 3.0 6 ------- null}
h -t 0.288288 -s 0 -d 1 -p tcp -e 1000 -c 1 -i 11 -a 1 -x {0.0 3.0 -1 ------- null}
r -t 0.289088 -s 1 -d 0 -p ack -e 40 -c 1 -i 9 -a 1 -x {3.0 0.0 4 ------- null}
+ -t 0.289088 -s 0 -d 1 -p tcp -e 1000 -c 1 -i 12 -a 1 -x {0.0 3.0 7 ------- null}
- -t 0.289088 -s 0 -d 1 -p tcp -e 1000 -c 1 -i 12 -a 1 -x {0.0 3.0 7 ------- null}
h -t 0.289088 -s 0 -d 1 -p tcp -e 1000 -c 1 -i 12 -a 1 -x {0.0 3.0 -1 ------- null}
r -t 0.298288 -s 0 -d 1 -p tcp -e 1000 -c 1 -i 10 -a 1 -x {0.0 3.0 5 ------- null}
+ -t 0.298288 -s 1 -d 2 -p tcp -e 1000 -c 1 -i 10 -a 1 -x {0.0 3.0 5 ------- null}
- -t 0.298288 -s 1 -d 2 -p tcp -e 1000 -c 1 -i 10 -a 1 -x {0.0 3.0 5 ------- null}
h -t 0.298288 -s 1 -d 2 -p tcp -e 1000 -c 1 -i 10 -a 1 -x {0.0 3.0 -1 ------- null}
r -t 0.299088 -s 0 -d 1 -p tcp -e 1000 -c 1 -i 11 -a 1 -x {0.0 3.0 6 ------- null}
+ -t 0.299088 -s 1 -d 2 -p tcp -e 1000 -c 1 -i 11 -a 1 -x {0.0 3.0 6 ------- null}
- -t 0.299088 -s 1 -d 2 -p tcp -e 1000 -c 1 -i 11 -a 1 -x {0.0 3.0 6 ------- null}
h -t 0.299088 -s 1 -d 2 -p tcp -e 1000 -c 1 -i 11 -a 1 -x {0.0 3.0 -1 ------- null}
r -t 0.299888 -s 0 -d 1 -p tcp -e 1000 -c 1 -i 12 -a 1 -x {0.0 3.0 7 ------- null}
+ -t 0.299888 -s 1 -d 2 -p tcp -e 1000 -c 1 -i 12 -a 1 -x {0.0 3.0 7 ------- null}
- -t 0.299888 -s 1 -d 2 -p tcp -e 1000 -c 1 -i 12 -a 1 -x {0.0 3.0 7 ------- null}
h -t 0.299888 -s 1 -d 2 -p tcp -e 1000 -c 1 -i 12 -a 1 -x {0.0 3.0 -1 ------- null}
r -t 0.309088 -s 1 -d 2 -p tcp -e 1000 -c 1 -i 10 -a 1 -x {0.0 3.0 5 ------- null}
+ -t 0.309088 -s 2 -d 3 -p tcp -e 1000 -c 1 -i 10 -a 1 -x {0.0 3.0 5 ------- null}
- -t 0.309088 -s 2 -d 3 -p tcp -e 1000 -c 1 -i 10 -a 1 -x {0.0 3.0 5 ------- null}
h -t 0.309088 -s 2 -d 3 -p tcp -e 1000 -c 1 -i 10 -a 1 -x {0.0 3.0 -1 ------- null}
r -t 0.309888 -s 1 -d 2 -p tcp -e 1000 -c 1 -i 11 -a 1 -x {0.0 3.0 6 ------- null}
+ -t 0.309888 -s 2 -d 3 -p tcp -e 1000 -c 1 -i 11 -a 1 -x {0.0 3.0 6 ------- null}
- -t 0.309888 -s 2 -d 3 -p tcp -e 1000 -c 1 -i 11 -a 1 -x {0.0 3.0 6 ------- null}
h -t 0.309888 -s 2 -d 3 -p tcp -e 1000 -c 1 -i 11 -a 1 -x {0.0 3.0 -1 ------- null}
r -t 0.310688 -s 1 -d 2 -p tcp -e 1000 -c 1 -i 12 -a 1 -x {0.0 3.0 7 ------- null}
+ -t 0.310688 -s 2 -d 3 -p tcp -e 1000 -c 1 -i 12 -a 1 -x {0.0 3.0 7 ------- null}
- -t 0.310688 -s 2 -d 3 -p tcp -e 1000 -c 1 -i 12 -a 1 -x {0.0 3.0 7 ------- null}
h -t 0.310688 -s 2 -d 3 -p tcp -e 1000 -c 1 -i 12 -a 1 -x {0.0 3.0 -1 ------- null}
r -t 0.319888 -s 2 -d 3 -p tcp -e 1000 -c 1 -i 10 -a 1 -x {0.0 3.0 5 ------- null}
+ -t 0.319888 -s 3 -d 2 -p ack -e 40 -c 1 -i 13 -a 1 -x {3.0 0.0 5 ------- null}
- -t 0.319888 -s 3 -d 2 -p ack -e 40 -c 1 -i 13 -a 1 -x {3.0 0.0 5 ------- null}
h -t 0.319888 -s 3 -d 2 -p ack -e 40 -c 1 -i 13 -a 1 -x {3.0 0.0 -1 ------- null}
r -t 0.320688 -s 2 -d 3 -p tcp -e 1000 -c 1 -i 11 -a 1 -x {0.0 3.0 6 ------- null}
+ -t 0.320688 -s 3 -d 2 -p ack -e 40 -c 1 -i 14 -a 1 -x {3.0 0.0 6 ------- null}
- -t 0.320688 -s 3 -d 2 -p ack -e 40 -c 1 -i 14 -a 1 -x {3.0 0.0 6 ------- null}
h -t 0.320688 -s 3 -d 2 -p ack -e 40 -c 1 -i 14 -a 1 -x {3.0 0.0 -1 ------- null}
r -t 0.321488 -s 2 -d 3 -p tcp -e 1000 -c 1 -i 12 -a 1 -x {0.0 3.0 7 ------- null}
+ -t 0.321488 -s 3 -d 2 -p ack -e 40 -c 1 -i 15 -a 1 -x {3.0 0.0 7 ------- null}
- -t 0.321488 -s 3 -d 2 -p ack -e 40 -c 1 -i 15 -a 1 -x {3.0 0.0 7 ------- null}
h -t 0.321488 -s 3 -d 2 -p ack -e 40 -c 1 -i 15 -a 1 -x {3.0 0.0 -1 ------- null}
r -t 0.32992 -s 3 -d 2 -p ack -e 40 -c 1 -i 13 -a 1 -x {3.0 0.0 5 ------- null}
+ -t 0.32992 -s 2 -d 1 -p ack -e 40 -c 1 -i 13 -a 1 -x {3.0 0.0 5 ------- null}
- -t 0.32992 -s 2 -d 1 -p ack -e 40 -c 1 -i 13 -a 1 -x {3.0 0.0 5 ------- null}
h -t 0.32992 -s 2 -d 1 -p ack -e 40 -c 1 -i 13 -a 1 -x {3.0 0.0 -1 ------- null}
r -t 0.33072 -s 3 -d 2 -p ack -e 40 -c 1 -i 14 -a 1 -x {3.0 0.0 6 ------- null}
+ -t 0.33072 -s 2 -d 1 -p ack -e 40 -c 1 -i 14 -a 1 -x {3.0 0.0 6 ------- null}
- -t 0.33072 -s 2 -d 1 -p ack -e 40 -c 1 -i 14 -a 1 -x {3.0 0.0 6 ------- null}
h -t 0.33072 -s 2 -d 1 -p ack -e 40 -c 1 -i 14 -a 1 -x {3.0 0.0 -1 ------- null}
r -t 0.33152 -s 3 -d 2 -p ack -e 40 -c 1 -i 15 -a 1 -x {3.0 0.0 7 ------- null}
+ -t 0.33152 -s 2 -d 1 -p ack -e 40 -c 1 -i 15 -a 1 -x {3.0 0.0 7 ------- null}
- -t 0.33152 -s 2 -d 1 -p ack -e 40 -c 1 -i 15 -a 1 -x {3.0 0.0 7 ------- null}
h -t 0.33152 -s 2 -d 1 -p ack -e 40 -c 1 -i 15 -a 1 -x {3.0 0.0 -1 ------- null}
r -t 0.339952 -s 2 -d 1 -p ack -e 40 -c 1 -i 13 -a 1 -x {3.0 0.0 5 ------- null}
+ -t 0.339952 -s 1 -d 0 -p ack -e 40 -c 1 -i 13 -a 1 -x {3.0 0.0 5 ------- null}
- -t 0.339952 -s 1 -d 0 -p ack -e 40 -c 1 -i 13 -a 1 -x {3.0 0.0 5 ------- null}
h -t 0.339952 -s 1 -d 0 -p ack -e 40 -c 1 -i 13 -a 1 -x {3.0 0.0 -1 ------- null}
r -t 0.340752 -s 2 -d 1 -p ack -e 40 -c 1 -i 14 -a 1 -x {3.0 0.0 6 ------- null}
+ -t 0.340752 -s 1 -d 0 -p ack -e 40 -c 1 -i 14 -a 1 -x {3.0 0.0 6 ------- null}
- -t 0.340752 -s 1 -d 0 -p ack -e 40 -c 1 -i 14 -a 1 -x {3.0 0.0 6 ------- null}
h -t 0.340752 -s 1 -d 0 -p ack -e 40 -c 1 -i 14 -a 1 -x {3.0 0.0 -1 ------- null}
r -t 0.341552 -s 2 -d 1 -p ack -e 40 -c 1 -i 15 -a 1 -x {3.0 0.0 7 ------- null}
+ -t 0.341552 -s 1 -d 0 -p ack -e 40 -c 1 -i 15 -a 1 -x {3.0 0.0 7 ------- null}
- -t 0.341552 -s 1 -d 0 -p ack -e 40 -c 1 -i 15 -a 1 -x {3.0 0.0 7 ------- null}
h -t 0.341552 -s 1 -d 0 -p ack -e 40 -c 1 -i 15 -a 1 -x {3.0 0.0 -1 ------- null}
r -t 0.349984 -s 1 -d 0 -p ack -e 40 -c 1 -i 13 -a 1 -x {3.0 0.0 5 ------- null}
+ -t 0.349984 -s 0 -d 1 -p tcp -e 1000 -c 1 -i 16 -a 1 -x {0.0 3.0 8 ------- null}
- -t 0.349984 -s 0 -d 1 -p tcp -e 1000 -c 1 -i 16 -a 1 -x {0.0 3.0 8 ------- null}
h -t 0.349984 -s 0 -d 1 -p tcp -e 1000 -c 1 -i 16 -a 1 -x {0.0 3.0 -1 ------- null}
+ -t 0.349984 -s 0 -d 1 -p tcp -e 1000 -c 1 -i 17 -a 1 -x {0.0 3.0 9 ------- null}
r -t 0.350784 -s 1 -d 0 -p ack -e 40 -c 1 -i 14 -a 1 -x {3.0 0.0 6 ------- null}
+ -t 0.350784 -s 0 -d 1 -p tcp -e 1000 -c 1 -i 18 -a 1 -x {0.0 3.0 10 ------- null}
+ -t 0.350784 -s 0 -d 1 -p tcp -e 1000 -c 1 -i 19 -a 1 -x {0.0 3.0 11 ------- null}
- -t 0.350784 -s 0 -d 1 -p tcp -e 1000 -c 1 -i 17 -a 1 -x {0.0 3.0 9 ------- null}
h -t 0.350784 -s 0 -d 1 -p tcp -e 1000 -c 1 -i 17 -a 1 -x {0.0 3.0 -1 ------- null}
r -t 0.351584 -s 1 -d 0 -p ack -e 40 -c 1 -i 15 -a 1 -x {3.0 0.0 7 ------- null}
+ -t 0.351584 -s 0 -d 1 -p tcp -e 1000 -c 1 -i 20 -a 1 -x {0.0 3.0 12 ------- null}
+ -t 0.351584 -s 0 -d 1 -p tcp -e 1000 -c 1 -i 21 -a 1 -x {0.0 3.0 13 ------- null}
- -t 0.351584 -s 0 -d 1 -p tcp -e 1000 -c 1 -i 18 -a 1 -x {0.0 3.0 10 ------- null}
h -t 0.351584 -s 0 -d 1 -p tcp -e 1000 -c 1 -i 18 -a 1 -x {0.0 3.0 -1 ------- null}
- -t 0.352384 -s 0 -d 1 -p tcp -e 1000 -c 1 -i 19 -a 1 -x {0.0 3.0 11 ------- null}
h -t 0.352384 -s 0 -d 1 -p tcp -e 1000 -c 1 -i 19 -a 1 -x {0.0 3.0 -1 ------- null}
- -t 0.353184 -s 0 -d 1 -p tcp -e 1000 -c 1 -i 20 -a 1 -x {0.0 3.0 12 ------- null}
h -t 0.353184 -s 0 -d 1 -p tcp -e 1000 -c 1 -i 20 -a 1 -x {0.0 3.0 -1 ------- null}
- -t 0.353984 -s 0 -d 1 -p tcp -e 1000 -c 1 -i 21 -a 1 -x {0.0 3.0 13 ------- null}
h -t 0.353984 -s 0 -d 1 -p tcp -e 1000 -c 1 -i 21 -a 1 -x {0.0 3.0 -1 ------- null}
r -t 0.360784 -s 0 -d 1 -p tcp -e 1000 -c 1 -i 16 -a 1 -x {0.0 3.0 8 ------- null}
+ -t 0.360784 -s 1 -d 2 -p tcp -e 1000 -c 1 -i 16 -a 1 -x {0.0 3.0 8 ------- null}
- -t 0.360784 -s 1 -d 2 -p tcp -e 1000 -c 1 -i 16 -a 1 -x {0.0 3.0 8 ------- null}
h -t 0.360784 -s 1 -d 2 -p tcp -e 1000 -c 1 -i 16 -a 1 -x {0.0 3.0 -1 ------- null}
r -t 0.361584 -s 0 -d 1 -p tcp -e 1000 -c 1 -i 17 -a 1 -x {0.0 3.0 9 ------- null}
+ -t 0.361584 -s 1 -d 2 -p tcp -e 1000 -c 1 -i 17 -a 1 -x {0.0 3.0 9 ------- null}
- -t 0.361584 -s 1 -d 2 -p tcp -e 1000 -c 1 -i 17 -a 1 -x {0.0 3.0 9 ------- null}
h -t 0.361584 -s 1 -d 2 -p tcp -e 1000 -c 1 -i 17 -a 1 -x {0.0 3.0 -1 ------- null}
r -t 0.362384 -s 0 -d 1 -p tcp -e 1000 -c 1 -i 18 -a 1 -x {0.0 3.0 10 ------- null}
+ -t 0.362384 -s 1 -d 2 -p tcp -e 1000 -c 1 -i 18 -a 1 -x {0.0 3.0 10 ------- null}
- -t 0.362384 -s 1 -d 2 -p tcp -e 1000 -c 1 -i 18 -a 1 -x {0.0 3.0 10 ------- null}
h -t 0.362384 -s 1 -d 2 -p tcp -e 1000 -c 1 -i 18 -a 1 -x {0.0 3.0 -1 ------- null}
r -t 0.363184 -s 0 -d 1 -p tcp -e 1000 -c 1 -i 19 -a 1 -x {0.0 3.0 11 ------- null}
+ -t 0.363184 -s 1 -d 2 -p tcp -e 1000 -c 1 -i 19 -a 1 -x {0.0 3.0 11 ------- null}
- -t 0.363184 -s 1 -d 2 -p tcp -e 1000 -c 1 -i 19 -a 1 -x {0.0 3.0 11 ------- null}
h -t 0.363184 -s 1 -d 2 -p tcp -e 1000 -c 1 -i 19 -a 1 -x {0.0 3.0 -1 ------- null}
r -t 0.363984 -s 0 -d 1 -p tcp -e 1000 -c 1 -i 20 -a 1 -x {0.0 3.0 12 ------- null}
+ -t 0.363984 -s 1 -d 2 -p tcp -e 1000 -c 1 -i 20 -a 1 -x {0.0 3.0 12 ------- null}
- -t 0.363984 -s 1 -d 2 -p tcp -e 1000 -c 1 -i 20 -a 1 -x {0.0 3.0 12 ------- null}
h -t 0.363984 -s 1 -d 2 -p tcp -e 1000 -c 1 -i 20 -a 1 -x {0.0 3.0 -1 ------- null}
r -t 0.364784 -s 0 -d 1 -p tcp -e 1000 -c 1 -i 21 -a 1 -x {0.0 3.0 13 ------- null}
+ -t 0.364784 -s 1 -d 2 -p tcp -e 1000 -c 1 -i 21 -a 1 -x {0.0 3.0 13 ------- null}
- -t 0.364784 -s 1 -d 2 -p tcp -e 1000 -c 1 -i 21 -a 1 -x {0.0 3.0 13 ------- null}
h -t 0.364784 -s 1 -d 2 -p tcp -e 1000 -c 1 -i 21 -a 1 -x {0.0 3.0 -1 ------- null}
r -t 0.371584 -s 1 -d 2 -p tcp -e 1000 -c 1 -i 16 -a 1 -x {0.0 3.0 8 ------- null}
+ -t 0.371584 -s 2 -d 3 -p tcp -e 1000 -c 1 -i 16 -a 1 -x {0.0 3.0 8 ------- null}
- -t 0.371584 -s 2 -d 3 -p tcp -e 1000 -c 1 -i 16 -a 1 -x {0.0 3.0 8 ------- null}
h -t 0.371584 -s 2 -d 3 -p tcp -e 1000 -c 1 -i 16 -a 1 -x {0.0 3.0 -1 ------- null}
r -t 0.372384 -s 1 -d 2 -p tcp -e 1000 -c 1 -i 17 -a 1 -x {0.0 3.0 9 ------- null}
+ -t 0.372384 -s 2 -d 3 -p tcp -e 1000 -c 1 -i 17 -a 1 -x {0.0 3.0 9 ------- null}
- -t 0.372384 -s 2 -d 3 -p tcp -e 1000 -c 1 -i 17 -a 1 -x {0.0 3.0 9 ------- null}
h -t 0.372384 -s 2 -d 3 -p tcp -e 1000 -c 1 -i 17 -a 1 -x {0.0 3.0 -1 ------- null}
r -t 0.373184 -s 1 -d 2 -p tcp -e 1000 -c 1 -i 18 -a 1 -x {0.0 3.0 10 ------- null}
+ -t 0.373184 -s 2 -d 3 -p tcp -e 1000 -c 1 -i 18 -a 1 -x {0.0 3.0 10 ------- null}
- -t 0.373184 -s 2 -d 3 -p tcp -e 1000 -c 1 -i 18 -a 1 -x {0.0 3.0 10 ------- null}
h -t 0.373184 -s 2 -d 3 -p tcp -e 1000 -c 1 -i 18 -a 1 -x {0.0 3.0 -1 ------- null}
r -t 0.373984 -s 1 -d 2 -p tcp -e 1000 -c 1 -i 19 -a 1 -x {0.0 3.0 11 ------- null}
+ -t 0.373984 -s 2 -d 3 -p tcp -e 1000 -c 1 -i 19 -a 1 -x {0.0 3.0 11 ------- null}
- -t 0.373984 -s 2 -d 3 -p tcp -e 1000 -c 1 -i 19 -a 1 -x {0.0 3.0 11 ------- null}
h -t 0.373984 -s 2 -d 3 -p tcp -e 1000 -c 1 -i 19 -a 1 -x {0.0 3.0 -1 ------- null}
r -t 0.374784 -s 1 -d 2 -p tcp -e 1000 -c 1 -i 20 -a 1 -x {0.0 3.0 12 ------- null}
+ -t 0.374784 -s 2 -d 3 -p tcp -e 1000 -c 1 -i 20 -a 1 -x {0.0 3.0 12 ------- null}
- -t 0.374784 -s 2 -d 3 -p tcp -e 1000 -c 1 -i 20 -a 1 -x {0.0 3.0 12 ------- null}
h -t 0.374784 -s 2 -d 3 -p tcp -e 1000 -c 1 -i 20 -a 1 -x {0.0 3.0 -1 ------- null}
r -t 0.375584 -s 1 -d 2 -p tcp -e 1000 -c 1 -i 21 -a 1 -x {0.0 3.0 13 ------- null}
+ -t 0.375584 -s 2 -d 3 -p tcp -e 1000 -c 1 -i 21 -a 1 -x {0.0 3.0 13 ------- null}
- -t 0.375584 -s 2 -d 3 -p tcp -e 1000 -c 1 -i 21 -a 1 -x {0.0 3.0 13 ------- null}
h -t 0.375584 -s 2 -d 3 -p tcp -e 1000 -c 1 -i 21 -a 1 -x {0.0 3.0 -1 ------- null}
r -t 0.382384 -s 2 -d 3 -p tcp -e 1000 -c 1 -i 16 -a 1 -x {0.0 3.0 8 ------- null}
+ -t 0.382384 -s 3 -d 2 -p ack -e 40 -c 1 -i 22 -a 1 -x {3.0 0.0 8 ------- null}
- -t 0.382384 -s 3 -d 2 -p ack -e 40 -c 1 -i 22 -a 1 -x {3.0 0.0 8 ------- null}
h -t 0.382384 -s 3 -d 2 -p ack -e 40 -c 1 -i 22 -a 1 -x {3.0 0.0 -1 ------- null}
r -t 0.383184 -s 2 -d 3 -p tcp -e 1000 -c 1 -i 17 -a 1 -x {0.0 3.0 9 ------- null}
+ -t 0.383184 -s 3 -d 2 -p ack -e 40 -c 1 -i 23 -a 1 -x {3.0 0.0 9 ------- null}
- -t 0.383184 -s 3 -d 2 -p ack -e 40 -c 1 -i 23 -a 1 -x {3.0 0.0 9 ------- null}
h -t 0.383184 -s 3 -d 2 -p ack -e 40 -c 1 -i 23 -a 1 -x {3.0 0.0 -1 ------- null}
r -t 0.383984 -s 2 -d 3 -p tcp -e 1000 -c 1 -i 18 -a 1 -x {0.0 3.0 10 ------- null}
+ -t 0.383984 -s 3 -d 2 -p ack -e 40 -c 1 -i 24 -a 1 -x {3.0 0.0 10 ------- null}
- -t 0.383984 -s 3 -d 2 -p ack -e 40 -c 1 -i 24 -a 1 -x {3.0 0.0 10 ------- null}
h -t 0.383984 -s 3 -d 2 -p ack -e 40 -c 1 -i 24 -a 1 -x {3.0 0.0 -1 ------- null}
r -t 0.384784 -s 2 -d 3 -p tcp -e 1000 -c 1 -i 19 -a 1 -x {0.0 3.0 11 ------- null}
+ -t 0.384784 -s 3 -d 2 -p ack -e 40 -c 1 -i 25 -a 1 -x {3.0 0.0 11 ------- null}
- -t 0.384784 -s 3 -d 2 -p ack -e 40 -c 1 -i 25 -a 1 -x {3.0 0.0 11 ------- null}
h -t 0.384784 -s 3 -d 2 -p ack -e 40 -c 1 -i 25 -a 1 -x {3.0 0.0 -1 ------- null}
r -t 0.385584 -s 2 -d 3 -p tcp -e 1000 -c 1 -i 20 -a 1 -x {0.0 3.0 12 ------- null}
+ -t 0.385584 -s 3 -d 2 -p ack -e 40 -c 1 -i 26 -a 1 -x {3.0 0.0 12 ------- null}
- -t 0.385584 -s 3 -d 2 -p ack -e 40 -c 1 -i 26 -a 1 -x {3.0 0.0 12 ------- null}
h -t 0.385584 -s 3 -d 2 -p ack -e 40 -c 1 -i 26 -a 1 -x {3.0 0.0 -1 ------- null}
r -t 0.386384 -s 2 -d 3 -p tcp -e 1000 -c 1 -i 21 -a 1 -x {0.0 3.0 13 ------- null}
+ -t 0.386384 -s 3 -d 2 -p ack -e 40 -c 1 -i 27 -a 1 -x {3.0 0.0 13 ------- null}
- -t 0.386384 -s 3 -d 2 -p ack -e 40 -c 1 -i 27 -a 1 -x {3.0 0.0 13 ------- null}
h -t 0.386384 -s 3 -d 2 -p ack -e 40 -c 1 -i 27 -a 1 -x {3.0 0.0 -1 ------- null}
r -t 0.392416 -s 3 -d 2 -p ack -e 40 -c 1 -i 22 -a 1 -x {3.0 0.0 8 ------- null}
+ -t 0.392416 -s 2 -d 1 -p ack -e 40 -c 1 -i 22 -a 1 -x {3.0 0.0 8 ------- null}
- -t 0.392416 -s 2 -d 1 -p ack -e 40 -c 1 -i 22 -a 1 -x {3.0 0.0 8 ------- null}
h -t 0.392416 -s 2 -d 1 -p ack -e 40 -c 1 -i 22 -a 1 -x {3.0 0.0 -1 ------- null}
r -t 0.393216 -s 3 -d 2 -p ack -e 40 -c 1 -i 23 -a 1 -x {3.0 0.0 9 ------- null}
+ -t 0.393216 -s 2 -d 1 -p ack -e 40 -c 1 -i 23 -a 1 -x {3.0 0.0 9 ------- null}
- -t 0.393216 -s 2 -d 1 -p ack -e 40 -c 1 -i 23 -a 1 -x {3.0 0.0 9 ------- null}
h -t 0.393216 -s 2 -d 1 -p ack -e 40 -c 1 -i 23 -a 1 -x {3.0 0.0 -1 ------- null}
r -t 0.394016 -s 3 -d 2 -p ack -e 40 -c 1 -i 24 -a 1 -x {3.0 0.0 10 ------- null}
+ -t 0.394016 -s 2 -d 1 -p ack -e 40 -c 1 -i 24 -a 1 -x {3.0 0.0 10 ------- null}
- -t 0.394016 -s 2 -d 1 -p ack -e 40 -c 1 -i 24 -a 1 -x {3.0 0.0 10 ------- null}
h -t 0.394016 -s 2 -d 1 -p ack -e 40 -c 1 -i 24 -a 1 -x {3.0 0.0 -1 ------- null}
r -t 0.394816 -s 3 -d 2 -p ack -e 40 -c 1 -i 25 -a 1 -x {3.0 0.0 11 ------- null}
+ -t 0.394816 -s 2 -d 1 -p ack -e 40 -c 1 -i 25 -a 1 -x {3.0 0.0 11 ------- null}
- -t 0.394816 -s 2 -d 1 -p ack -e 40 -c 1 -i 25 -a 1 -x {3.0 0.0 11 ------- null}
h -t 0.394816 -s 2 -d 1 -p ack -e 40 -c 1 -i 25 -a 1 -x {3.0 0.0 -1 ------- null}
r -t 0.395616 -s 3 -d 2 -p ack -e 40 -c 1 -i 26 -a 1 -x {3.0 0.0 12 ------- null}
+ -t 0.395616 -s 2 -d 1 -p ack -e 40 -c 1 -i 26 -a 1 -x {3.0 0.0 12 ------- null}
- -t 0.395616 -s 2 -d 1 -p ack -e 40 -c 1 -i 26 -a 1 -x {3.0 0.0 12 ------- null}
h -t 0.395616 -s 2 -d 1 -p ack -e 40 -c 1 -i 26 -a 1 -x {3.0 0.0 -1 ------- null}
r -t 0.396416 -s 3 -d 2 -p ack -e 40 -c 1 -i 27 -a 1 -x {3.0 0.0 13 ------- null}
+ -t 0.396416 -s 2 -d 1 -p ack -e 40 -c 1 -i 27 -a 1 -x {3.0 0.0 13 ------- null}
- -t 0.396416 -s 2 -d 1 -p ack -e 40 -c 1 -i 27 -a 1 -x {3.0 0.0 13 ------- null}
h -t 0.396416 -s 2 -d 1 -p ack -e 40 -c 1 -i 27 -a 1 -x {3.0 0.0 -1 ------- null}
+ -t 0.4 -s 2 -d 1 -p cbr -e 1000 -c 2 -i 28 -a 2 -x {2.0 1.0 0 ------- null}
- -t 0.4 -s 2 -d 1 -p cbr -e 1000 -c 2 -i 28 -a 2 -x {2.0 1.0 0 ------- null}
h -t 0.4 -s 2 -d 1 -p cbr -e 1000 -c 2 -i 28 -a 2 -x {2.0 1.0 -1 ------- null}
r -t 0.402448 -s 2 -d 1 -p ack -e 40 -c 1 -i 22 -a 1 -x {3.0 0.0 8 ------- null}
+ -t 0.402448 -s 1 -d 0 -p ack -e 40 -c 1 -i 22 -a 1 -x {3.0 0.0 8 ------- null}
- -t 0.402448 -s 1 -d 0 -p ack -e 40 -c 1 -i 22 -a 1 -x {3.0 0.0 8 ------- null}
h -t 0.402448 -s 1 -d 0 -p ack -e 40 -c 1 -i 22 -a 1 -x {3.0 0.0 -1 ------- null}
r -t 0.403248 -s 2 -d 1 -p ack -e 40 -c 1 -i 23 -a 1 -x {3.0 0.0 9 ------- null}
+ -t 0.403248 -s 1 -d 0 -p ack -e 40 -c 1 -i 23 -a 1 -x {3.0 0.0 9 ------- null}
- -t 0.403248 -s 1 -d 0 -p ack -e 40 -c 1 -i 23 -a 1 -x {3.0 0.0 9 ------- null}
h -t 0.403248 -s 1 -d 0 -p ack -e 40 -c 1 -i 23 -a 1 -x {3.0 0.0 -1 ------- null}
r -t 0.404048 -s 2 -d 1 -p ack -e 40 -c 1 -i 24 -a 1 -x {3.0 0.0 10 ------- null}
+ -t 0.404048 -s 1 -d 0 -p ack -e 40 -c 1 -i 24 -a 1 -x {3.0 0.0 10 ------- null}
- -t 0.404048 -s 1 -d 0 -p ack -e 40 -c 1 -i 24 -a 1 -x {3.0 0.0 10 ------- null}
h -t 0.404048 -s 1 -d 0 -p ack -e 40 -c 1 -i 24 -a 1 -x {3.0 0.0 -1 ------- null}
r -t 0.404848 -s 2 -d 1 -p ack -e 40 -c 1 -i 25 -a 1 -x {3.0 0.0 11 ------- null}
+ -t 0.404848 -s 1 -d 0 -p ack -e 40 -c 1 -i 25 -a 1 -x {3.0 0.0 11 ------- null}
- -t 0.404848 -s 1 -d 0 -p ack -e 40 -c 1 -i 25 -a 1 -x {3.0 0.0 11 ------- null}
h -t 0.404848 -s 1 -d 0 -p ack -e 40 -c 1 -i 25 -a 1 -x {3.0 0.0 -1 ------- null}
r -t 0.405648 -s 2 -d 1 -p ack -e 40 -c 1 -i 26 -a 1 -x {3.0 0.0 12 ------- null}
+ -t 0.405648 -s 1 -d 0 -p ack -e 40 -c 1 -i 26 -a 1 -x {3.0 0.0 12 ------- null}
- -t 0.405648 -s 1 -d 0 -p ack -e 40 -c 1 -i 26 -a 1 -x {3.0 0.0 12 ------- null}
h -t 0.405648 -s 1 -d 0 -p ack -e 40 -c 1 -i 26 -a 1 -x {3.0 0.0 -1 ------- null}
r -t 0.406448 -s 2 -d 1 -p ack -e 40 -c 1 -i 27 -a 1 -x {3.0 0.0 13 ------- null}
+ -t 0.406448 -s 1 -d 0 -p ack -e 40 -c 1 -i 27 -a 1 -x {3.0 0.0 13 ------- null}
- -t 0.406448 -s 1 -d 0 -p ack -e 40 -c 1 -i 27 -a 1 -x {3.0 0.0 13 ------- null}
h -t 0.406448 -s 1 -d 0 -p ack -e 40 -c 1 -i 27 -a 1 -x {3.0 0.0 -1 ------- null}
+ -t 0.408 -s 2 -d 1 -p cbr -e 1000 -c 2 -i 29 -a 2 -x {2.0 1.0 1 ------- null}
- -t 0.408 -s 2 -d 1 -p cbr -e 1000 -c 2 -i 29 -a 2 -x {2.0 1.0 1 ------- null}
h -t 0.408 -s 2 -d 1 -p cbr -e 1000 -c 2 -i 29 -a 2 -x {2.0 1.0 -1 ------- null}
r -t 0.4108 -s 2 -d 1 -p cbr -e 1000 -c 2 -i 28 -a 2 -x {2.0 1.0 0 ------- null}
r -t 0.41248 -s 1 -d 0 -p ack -e 40 -c 1 -i 22 -a 1 -x {3.0 0.0 8 ------- null}
+ -t 0.41248 -s 0 -d 1 -p tcp -e 1000 -c 1 -i 30 -a 1 -x {0.0 3.0 14 ------- null}
- -t 0.41248 -s 0 -d 1 -p tcp -e 1000 -c 1 -i 30 -a 1 -x {0.0 3.0 14 ------- null}
h -t 0.41248 -s 0 -d 1 -p tcp -e 1000 -c 1 -i 30 -a 1 -x {0.0 3.0 -1 ------- null}
r -t 0.41328 -s 1 -d 0 -p ack -e 40 -c 1 -i 23 -a 1 -x {3.0 0.0 9 ------- null}
+ -t 0.41328 -s 0 -d 1 -p tcp -e 1000 -c 1 -i 31 -a 1 -x {0.0 3.0 15 ------- null}
- -t 0.41328 -s 0 -d 1 -p tcp -e 1000 -c 1 -i 31 -a 1 -x {0.0 3.0 15 ------- null}
h -t 0.41328 -s 0 -d 1 -p tcp -e 1000 -c 1 -i 31 -a 1 -x {0.0 3.0 -1 ------- null}
r -t 0.41408 -s 1 -d 0 -p ack -e 40 -c 1 -i 24 -a 1 -x {3.0 0.0 10 ------- null}
+ -t 0.41408 -s 0 -d 1 -p tcp -e 1000 -c 1 -i 32 -a 1 -x {0.0 3.0 16 ------- null}
- -t 0.41408 -s 0 -d 1 -p tcp -e 1000 -c 1 -i 32 -a 1 -x {0.0 3.0 16 ------- null}
h -t 0.41408 -s 0 -d 1 -p tcp -e 1000 -c 1 -i 32 -a 1 -x {0.0 3.0 -1 ------- null}
r -t 0.41488 -s 1 -d 0 -p ack -e 40 -c 1 -i 25 -a 1 -x {3.0 0.0 11 ------- null}
+ -t 0.41488 -s 0 -d 1 -p tcp -e 1000 -c 1 -i 33 -a 1 -x {0.0 3.0 17 ------- null}
- -t 0.41488 -s 0 -d 1 -p tcp -e 1000 -c 1 -i 33 -a 1 -x {0.0 3.0 17 ------- null}
h -t 0.41488 -s 0 -d 1 -p tcp -e 1000 -c 1 -i 33 -a 1 -x {0.0 3.0 -1 ------- null}
r -t 0.41568 -s 1 -d 0 -p ack -e 40 -c 1 -i 26 -a 1 -x {3.0 0.0 12 ------- null}
+ -t 0.41568 -s 0 -d 1 -p tcp -e 1000 -c 1 -i 34 -a 1 -x {0.0 3.0 18 ------- null}
- -t 0.41568 -s 0 -d 1 -p tcp -e 1000 -c 1 -i 34 -a 1 -x {0.0 3.0 18 ------- null}
h -t 0.41568 -s 0 -d 1 -p tcp -e 1000 -c 1 -i 34 -a 1 -x {0.0 3.0 -1 ------- null}
+ -t 0.416 -s 2 -d 1 -p cbr -e 1000 -c 2 -i 35 -a 2 -x {2.0 1.0 2 ------- null}