V -t * -v 1.0a5 -a 0
A -t * -n 1 -p 0 -o 0x7fffffff -c 30 -a 1
A -t * -h 1 -m 1073741823 -s 0
c -t * -i 1 -n Blue
c -t * -i 2 -n Red
n -t * -a 4 -s 4 -S UP -v circle -c black -i black
n -t * -a 0 -s 0 -S UP -v circle -c black -i black
n -t * -a 5 -s 5 -S UP -v circle -c black -i black
n -t * -a 1 -s 1 -S UP -v circle -c black -i black
n -t * -a 2 -s 2 -S UP -v circle -c black -i black
n -t * -a 3 -s 3 -S UP -v circle -c black -i black
l -t * -s 0 -d 1 -S UP -r 2000000 -D 0.01 -c black -o right-down
l -t * -s 4 -d 1 -S UP -r 2000000 -D 0.01 -c black -o right-up
l -t * -s 1 -d 2 -S UP -r 2000000 -D 0.01 -c black -o right
l -t * -s 2 -d 3 -S UP -r 2000000 -D 0.01 -c black -o right-up
l -t * -s 2 -d 5 -S UP -r 2000000 -D 0.01 -c black -o right-down
q -t * -s 2 -d 1 -a 0.5
q -t * -s 1 -d 2 -a 0.5
+ -t 0.1 -s 2 -d 1 -p cbr -e 1000 -c 2 -i 0 -a 2 -x {2.0 1.0 0 ------- null}
- -t 0.1 -s 2 -d 1 -p cbr -e 1000 -c 2 -i 0 -a 2 -x {2.0 1.0 0 ------- null}
h -t 0.1 -s 2 -d 1 -p cbr -e 1000 -c 2 -i 0 -a 2 -x {2.0 1.0 -1 ------- null}
+ -t 0.102 -s 2 -d 1 -p cbr -e 1000 -c 2 -i 1 -a 2 -x {2.0 1.0 1 ------- null}
- -t 0.104 -s 2 -d 1 -p cbr -e 1000 -c 2 -i 1 -a 2 -x {2.0 1.0 1 ------- null}
h -t 0.104 -s 2 -d 1 -p cbr -e 1000 -c 2 -i 1 -a 2 -x {2.0 1.0 -1 ------- null}
+ -t 0.104 -s 2 -d 1 -p cbr -e 1000 -c 2 -i 2 -a 2 -x {2.0 1.0 2 ------- null}
+ -t 0.106 -s 2 -d 1 -p cbr -e 1000 -c 2 -i 3 -a 2 -x {2.0 1.0 3 ------- null}
- -t 0.108 -s 2 -d 1 -p cbr -e 1000 -c 2 -i 2 -a 2 -x {2.0 1.0 2 ------- null}
h -t 0.108 -s 2 -d 1 -p cbr -e 1000 -c 2 -i 2 -a 2 -x {2.0 1.0 -1 ------- null}
+ -t 0.108 -s 2 -d 1 -p cbr -e 1000 -c 2 -i 4 -a 2 -x {2.0 1.0 4 ------- null}
+ -t 0.11 -s 2 -d 1 -p cbr -e 1000 -c 2 -i 5 -a 2 -x {2.0 1.0 5 ------- null}
- -t 0.112 -s 2 -d 1 -p cbr -e 1000 -c 2 -i 3 -a 2 -x {2.0 1.0 3 ------- null}
h -t 0.112 -s 2 -d 1 -p cbr -e 1000 -c 2 -i 3 -a 2 -x {2.0 1.0 -1 ------- null}
+ -t 0.112 -s 2 -d 1 -p cbr -e 1000 -c 2 -i 6 -a 2 -x {2.0 1.0 6 ------- null}
r -t 0.114 -s 2 -d 1 -p cbr -e 1000 -c 2 -i 0 -a 2 -x {2.0 1.0 0 ------- null}
+ -t 0.114 -s 2 -d 1 -p cbr -e 1000 -c 2 -i 7 -a 2 -x {2.0 1.0 7 ------- null}
- -t 0.116 -s 2 -d 1 -p cbr -e 1000 -c 2 -i 4 -a 2 -x {2.0 1.0 4 ------- null}
h -t 0.116 -s 2 -d 1 -p cbr -e 1000 -c 2 -i 4 -a 2 -x {2.0 1.0 -1 ------- null}
+ -t 0.116 -s 2 -d 1 -p cbr -e 1000 -c 2 -i 8 -a 2 -x {2.0 1.0 8 ------- null}
r -t 0.118 -s 2 -d 1 -p cbr -e 1000 -c 2 -i 1 -a 2 -x {2.0 1.0 1 ------- null}
+ -t 0.118 -s 2 -d 1 -p cbr -e 1000 -c 2 -i 9 -a 2 -x {2.0 1.0 9 ------- null}
- -t 0.12 -s 2 -d 1 -p cbr -e 1000 -c 2 -i 5 -a 2 -x {2.0 1.0 5 ------- null}
h -t 0.12 -s 2 -d 1 -p cbr -e 1000 -c 2 -i 5 -a 2 -x {2.0 1.0 -1 ------- null}
+ -t 0.12 -s 2 -d 1 -p cbr -e 1000 -c 2 -i 10 -a 2 -x {2.0 1.0 10 ------- null}
r -t 0.122 -s 2 -d 1 -p cbr -e 1000 -c 2 -i 2 -a 2 -x {2.0 1.0 2 ------- null}
+ -t 0.122 -s 2 -d 1 -p cbr -e 1000 -c 2 -i 11 -a 2 -x {2.0 1.0 11 ------- null}
- -t 0.124 -s 2 -d 1 -p cbr -e 1000 -c 2 -i 6 -a 2 -x {2.0 1.0 6 ------- null}
h -t 0.124 -s 2 -d 1 -p cbr -e 1000 -c 2 -i 6 -a 2 -x {2.0 1.0 -1 ------- null}
+ -t 0.124 -s 2 -d 1 -p cbr -e 1000 -c 2 -i 12 -a 2 -x {2.0 1.0 12 ------- null}
r -t 0.126 -s 2 -d 1 -p cbr -e 1000 -c 2 -i 3 -a 2 -x {2.0 1.0 3 ------- null}
+ -t 0.126 -s 2 -d 1 -p cbr -e 1000 -c 2 -i 13 -a 2 -x {2.0 1.0 13 ------- null}
- -t 0.128 -s 2 -d 1 -p cbr -e 1000 -c 2 -i 7 -a 2 -x {2.0 1.0 7 ------- null}
h -t 0.128 -s 2 -d 1 -p cbr -e 1000 -c 2 -i 7 -a 2 -x {2.0 1.0 -1 ------- null}
+ -t 0.128 -s 2 -d 1 -p cbr -e 1000 -c 2 -i 14 -a 2 -x {2.0 1.0 14 ------- null}
r -t 0.13 -s 2 -d 1 -p cbr -e 1000 -c 2 -i 4 -a 2 -x {2.0 1.0 4 ------- null}
+ -t 0.13 -s 2 -d 1 -p cbr -e 1000 -c 2 -i 15 -a 2 -x {2.0 1.0 15 ------- null}
- -t 0.132 -s 2 -d 1 -p cbr -e 1000 -c 2 -i 8 -a 2 -x {2.0 1.0 8 ------- null}
h -t 0.132 -s 2 -d 1 -p cbr -e 1000 -c 2 -i 8 -a 2 -x {2.0 1.0 -1 ------- null}
+ -t 0.132 -s 2 -d 1 -p cbr -e 1000 -c 2 -i 16 -a 2 -x {2.0 1.0 16 ------- null}
r -t 0.134 -s 2 -d 1 -p cbr -e 1000 -c 2 -i 5 -a 2 -x {2.0 1.0 5 ------- null}
+ -t 0.134 -s 2 -d 1 -p cbr -e 1000 -c 2 -i 17 -a 2 -x {2.0 1.0 17 ------- null}
- -t 0.136 -s 2 -d 1 -p cbr -e 1000 -c 2 -i 9 -a 2 -x {2.0 1.0 9 ------- null}
h -t 0.136 -s 2 -d 1 -p cbr -e 1000 -c 2 -i 9 -a 2 -x {2.0 1.0 -1 ------- null}
+ -t 0.136 -s 2 -d 1 -p cbr -e 1000 -c 2 -i 18 -a 2 -x {2.0 1.0 18 ------- null}
r -t 0.138 -s 2 -d 1 -p cbr -e 1000 -c 2 -i 6 -a 2 -x {2.0 1.0 6 ------- null}
+ -t 0.138 -s 2 -d 1 -p cbr -e 1000 -c 2 -i 19 -a 2 -x {2.0 1.0 19 ------- null}
- -t 0.14 -s 2 -d 1 -p cbr -e 1000 -c 2 -i 10 -a 2 -x {2.0 1.0 10 ------- null}
h -t 0.14 -s 2 -d 1 -p cbr -e 1000 -c 2 -i 10 -a 2 -x {2.0 1.0 -1 ------- null}
+ -t 0.14 -s 2 -d 1 -p cbr -e 1000 -c 2 -i 20 -a 2 -x {2.0 1.0 20 ------- null}
r -t 0.142 -s 2 -d 1 -p cbr -e 1000 -c 2 -i 7 -a 2 -x {2.0 1.0 7 ------- null}
+ -t 0.142 -s 2 -d 1 -p cbr -e 1000 -c 2 -i 21 -a 2 -x {2.0 1.0 21 ------- null}
- -t 0.144 -s 2 -d 1 -p cbr -e 1000 -c 2 -i 11 -a 2 -x {2.0 1.0 11 ------- null}
h -t 0.144 -s 2 -d 1 -p cbr -e 1000 -c 2 -i 11 -a 2 -x {2.0 1.0 -1 ------- null}
+ -t 0.144 -s 2 -d 1 -p cbr -e 1000 -c 2 -i 22 -a 2 -x {2.0 1.0 22 ------- null}
r -t 0.146 -s 2 -d 1 -p cbr -e 1000 -c 2 -i 8 -a 2 -x {2.0 1.0 8 ------- null}
+ -t 0.146 -s 2 -d 1 -p cbr -e 1000 -c 2 -i 23 -a 2 -x {2.0 1.0 23 ------- null}
- -t 0.148 -s 2 -d 1 -p cbr -e 1000 -c 2 -i 12 -a 2 -x {2.0 1.0 12 ------- null}
h -t 0.148 -s 2 -d 1 -p cbr -e 1000 -c 2 -i 12 -a 2 -x {2.0 1.0 -1 ------- null}
+ -t 0.148 -s 2 -d 1 -p cbr -e 1000 -c 2 -i 24 -a 2 -x {2.0 1.0 24 ------- null}
r -t 0.15 -s 2 -d 1 -p cbr -e 1000 -c 2 -i 9 -a 2 -x {2.0 1.0 9 ------- null}
+ -t 0.15 -s 2 -d 1 -p cbr -e 1000 -c 2 -i 25 -a 2 -x {2.0 1.0 25 ------- null}
- -t 0.152 -s 2 -d 1 -p cbr -e 1000 -c 2 -i 13 -a 2 -x {2.0 1.0 13 ------- null}
h -t 0.152 -s 2 -d 1 -p cbr -e 1000 -c 2 -i 13 -a 2 -x {2.0 1.0 -1 ------- null}
+ -t 0.152 -s 2 -d 1 -p cbr -e 1000 -c 2 -i 26 -a 2 -x {2.0 1.0 26 ------- null}
r -t 0.154 -s 2 -d 1 -p cbr -e 1000 -c 2 -i 10 -a 2 -x {2.0 1.0 10 ------- null}
+ -t 0.154 -s 2 -d 1 -p cbr -e 1000 -c 2 -i 27 -a 2 -x {2.0 1.0 27 ------- null}
- -t 0.156 -s 2 -d 1 -p cbr -e 1000 -c 2 -i 14 -a 2 -x {2.0 1.0 14 ------- null}
h -t 0.156 -s 2 -d 1 -p cbr -e 1000 -c 2 -i 14 -a 2 -x {2.0 1.0 -1 ------- null}
+ -t 0.156 -s 2 -d 1 -p cbr -e 1000 -c 2 -i 28 -a 2 -x {2.0 1.0 28 ------- null}
r -t 0.158 -s 2 -d 1 -p cbr -e 1000 -c 2 -i 11 -a 2 -x {2.0 1.0 11 ------- null}
+ -t 0.158 -s 2 -d 1 -p cbr -e 1000 -c 2 -i 29 -a 2 -x {2.0 1.0 29 ------- null}
- -t 0.16 -s 2 -d 1 -p cbr -e 1000 -c 2 -i 15 -a 2 -x {2.0 1.0 15 ------- null}
h -t 0.16 -s 2 -d 1 -p cbr -e 1000 -c 2 -i 15 -a 2 -x {2.0 1.0 -1 ------- null}
+ -t 0.16 -s 2 -d 1 -p cbr -e 1000 -c 2 -i 30 -a 2 -x {2.0 1.0 30 ------- null}
r -t 0.162 -s 2 -d 1 -p cbr -e 1000 -c 2 -i 12 -a 2 -x {2.0 1.0 12 ------- null}
+ -t 0.162 -s 2 -d 1 -p cbr -e 1000 -c 2 -i 31 -a 2 -x {2.0 1.0 31 ------- null}
- -t 0.164 -s 2 -d 1 -p cbr -e 1000 -c 2 -i 16 -a 2 -x {2.0 1.0 16 ------- null}
h -t 0.164 -s 2 -d 1 -p cbr -e 1000 -c 2 -i 16 -a 2 -x {2.0 1.0 -1 ------- null}
+ -t 0.164 -s 2 -d 1 -p cbr -e 1000 -c 2 -i 32 -a 2 -x {2.0 1.0 32 ------- null}
r -t 0.166 -s 2 -d 1 -p cbr -e 1000 -c 2 -i 13 -a 2 -x {2.0 1.0 13 ------- null}
+ -t 0.166 -s 2 -d 1 -p cbr -e 1000 -c 2 -i 33 -a 2 -x {2.0 1.0 33 ------- null}
- -t 0.168 -s 2 -d 1 -p cbr -e 1000 -c 2 -i 17 -a 2 -x {2.0 1.0 17 ------- null}
h -t 0.168 -s 2 -d 1 -p cbr -e 1000 -c 2 -i 17 -a 2 -x {2.0 1.0 -1 ------- null}
+ -t 0.168 -s 2 -d 1 -p cbr -e 1000 -c 2 -i 34 -a 2 -x {2.0 1.0 34 ------- null}
r -t 0.17 -s 2 -d 1 -p cbr -e 1000 -c 2 -i 14 -a 2 -x {2.0 1.0 14 ------- null}
+ -t 0.17 -s 2 -d 1 -p cbr -e 1000 -c 2 -i 35 -a 2 -x {2.0 1.0 35 ------- null}
- -t 0.172 -s 2 -d 1 -p cbr -e 1000 -c 2 -i 18 -a 2 -x {2.0 1.0 18 ------- null}
h -t 0.172 -s 2 -d 1 -p cbr -e 1000 -c 2 -i 18 -a 2 -x {2.0 1.0 -1 ------- null}
+ -t 0.172 -s 2 -d 1 -p cbr -e 1000 -c 2 -i 36 -a 2 -x {2.0 1.0 36 ------- null}
r -t 0.174 -s 2 -d 1 -p cbr -e 1000 -c 2 -i 15 -a 2 -x {2.0 1.0 15 ------- null}
+ -t 0.174 -s 2 -d 1 -p cbr -e 1000 -c 2 -i 37 -a 2 -x {2.0 1.0 37 ------- null}
- -t 0.176 -s 2 -d 1 -p cbr -e 1000 -c 2 -i 19 -a 2 -x {2.0 1.0 19 ------- null}
h -t 0.176 -s 2 -d 1 -p cbr -e 1000 -c 2 -i 19 -a 2 -x {2.0 1.0 -1 ------- null}
+ -t 0.176 -s 2 -d 1 -p cbr -e 1000 -c 2 -i 38 -a 2 -x {2.0 1.0 38 ------- null}
r -t 0.178 -s 2 -d 1 -p cbr -e 1000 -c 2 -i 16 -a 2 -x {2.0 1.0 16 ------- null}
+ -t 0.178 -s 2 -d 1 -p cbr -e 1000 -c 2 -i 39 -a 2 -x {2.0 1.0 39 ------- null}
- -t 0.18 -s 2 -d 1 -p cbr -e 1000 -c 2 -i 20 -a 2 -x {2.0 1.0 20 ------- null}
h -t 0.18 -s 2 -d 1 -p cbr -e 1000 -c 2 -i 20 -a 2 -x {2.0 1.0 -1 ------- null}
+ -t 0.18 -s 2 -d 1 -p cbr -e 1000 -c 2 -i 40 -a 2 -x {2.0 1.0 40 ------- null}
r -t 0.182 -s 2 -d 1 -p cbr -e 1000 -c 2 -i 17 -a 2 -x {2.0 1.0 17 ------- null}
+ -t 0.182 -s 2 -d 1 -p cbr -e 1000 -c 2 -i 41 -a 2 -x {2.0 1.0 41 ------- null}
- -t 0.184 -s 2 -d 1 -p cbr -e 1000 -c 2 -i 21 -a 2 -x {2.0 1.0 21 ------- null}
h -t 0.184 -s 2 -d 1 -p cbr -e 1000 -c 2 -i 21 -a 2 -x {2.0 1.0 -1 ------- null}
+ -t 0.184 -s 2 -d 1 -p cbr -e 1000 -c 2 -i 42 -a 2 -x {2.0 1.0 42 ------- null}
r -t 0.186 -s 2 -d 1 -p cbr -e 1000 -c 2 -i 18 -a 2 -x {2.0 1.0 18 ------- null}
+ -t 0.186 -s 2 -d 1 -p cbr -e 1000 -c 2 -i 43 -a 2 -x {2.0 1.0 43 ------- null}
- -t 0.188 -s 2 -d 1 -p cbr -e 1000 -c 2 -i 22 -a 2 -x {2.0 1.0 22 ------- null}
h -t 0.188 -s 2 -d 1 -p cbr -e 1000 -c 2 -i 22 -a 2 -x {2.0 1.0 -1 ------- null}
+ -t 0.188 -s 2 -d 1 -p cbr -e 1000 -c 2 -i 44 -a 2 -x {2.0 1.0 44 ------- null}
r -t 0.19 -s 2 -d 1 -p cbr -e 1000 -c 2 -i 19 -a 2 -x {2.0 1.0 19 ------- null}
+ -t 0.19 -s 2 -d 1 -p cbr -e 1000 -c 2 -i 45 -a 2 -x {2.0 1.0 45 ------- null}
- -t 0.192 -s 2 -d 1 -p cbr -e 1000 -c 2 -i 23 -a 2 -x {2.0 1.0 23 ------- null}
h -t 0.192 -s 2 -d 1 -p cbr -e 1000 -c 2 -i 23 -a 2 -x {2.0 1.0 -1 ------- null}
+ -t 0.192 -s 2 -d 1 -p cbr -e 1000 -c 2 -i 46 -a 2 -x {2.0 1.0 46 ------- null}
r -t 0.194 -s 2 -d 1 -p cbr -e 1000 -c 2 -i 20 -a 2 -x {2.0 1.0 20 ------- null}
+ -t 0.194 -s 2 -d 1 -p cbr -e 1000 -c 2 -i 47 -a 2 -x {2.0 1.0 47 ------- null}
- -t 0.196 -s 2 -d 1 -p cbr -e 1000 -c 2 -i 24 -a 2 -x {2.0 1.0 24 ------- null}
h -t 0.196 -s 2 -d 1 -p cbr -e 1000 -c 2 -i 24 -a 2 -x {2.0 1.0 -1 ------- null}
+ -t 0.196 -s 2 -d 1 -p cbr -e 1000 -c 2 -i 48 -a 2 -x {2.0 1.0 48 ------- null}
r -t 0.198 -s 2 -d 1 -p cbr -e 1000 -c 2 -i 21 -a 2 -x {2.0 1.0 21 ------- null}
+ -t 0.198 -s 2 -d 1 -p cbr -e 1000 -c 2 -i 49 -a 2 -x {2.0 1.0 49 ------- null}
- -t 0.2 -s 2 -d 1 -p cbr -e 1000 -c 2 -i 25 -a 2 -x {2.0 1.0 25 ------- null}
h -t 0.2 -s 2 -d 1 -p cbr -e 1000 -c 2 -i 25 -a 2 -x {2.0 1.0 -1 ------- null}
+ -t 0.2 -s 2 -d 1 -p cbr -e 1000 -c 2 -i 50 -a 2 -x {2.0 1.0 50 ------- null}
r -t 0.202 -s 2 -d 1 -p cbr -e 1000 -c 2 -i 22 -a 2 -x {2.0 1.0 22 ------- null}
+ -t 0.202 -s 2 -d 1 -p cbr -e 1000 -c 2 -i 51 -a 2 -x {2.0 1.0 51 ------- null}
- -t 0.204 -s 2 -d 1 -p cbr -e 1000 -c 2 -i 26 -a 2 -x {2.0 1.0 26 ------- null}
h -t 0.204 -s 2 -d 1 -p cbr -e 1000 -c 2 -i 26 -a 2 -x {2.0 1.0 -1 ------- null}
+ -t 0.204 -s 2 -d 1 -p cbr -e 1000 -c 2 -i 52 -a 2 -x {2.0 1.0 52 ------- null}
r -t 0.206 -s 2 -d 1 -p cbr -e 1000 -c 2 -i 23 -a 2 -x {2.0 1.0 23 ------- null}
+ -t 0.206 -s 2 -d 1 -p cbr -e 1000 -c 2 -i 53 -a 2 -x {2.0 1.0 53 ------- null}
- -t 0.208 -s 2 -d 1 -p cbr -e 1000 -c 2 -i 27 -a 2 -x {2.0 1.0 27 ------- null}
h -t 0.208 -s 2 -d 1 -p cbr -e 1000 -c 2 -i 27 -a 2 -x {2.0 1.0 -1 ------- null}
+ -t 0.208 -s 2 -d 1 -p cbr -e 1000 -c 2 -i 54 -a 2 -x {2.0 1.0 54 ------- null}
r -t 0.21 -s 2 -d 1 -p cbr -e 1000 -c 2 -i 24 -a 2 -x {2.0 1.0 24 ------- null}
+ -t 0.21 -s 2 -d 1 -p cbr -e 1000 -c 2 -i 55 -a 2 -x {2.0 1.0 55 ------- null}
- -t 0.212 -s 2 -d 1 -p cbr -e 1000 -c 2 -i 28 -a 2 -x {2.0 1.0 28 ------- null}
h -t 0.212 -s 2 -d 1 -p cbr -e 1000 -c 2 -i 28 -a 2 -x {2.0 1.0 -1 ------- null}
+ -t 0.212 -s 2 -d 1 -p cbr -e 1000 -c 2 -i 56 -a 2 -x {2.0 1.0 56 ------- null}
r -t 0.214 -s 2 -d 1 -p cbr -e 1000 -c 2 -i 25 -a 2 -x {2.0 1.0 25 ------- null}
+ -t 0.214 -s 2 -d 1 -p cbr -e 1000 -c 2 -i 57 -a 2 -x {2.0 1.0 57 ------- null}
- -t 0.216 -s 2 -d 1 -p cbr -e 1000 -c 2 -i 29 -a 2 -x {2.0 1.0 29 ------- null}
h -t 0.216 -s 2 -d 1 -p cbr -e 1000 -c 2 -i 29 -a 2 -x {2.0 1.0 -1 ------- null}
+ -t 0.216 -s 2 -d 1 -p cbr -e 1000 -c 2 -i 58 -a 2 -x {2.0 1.0 58 ------- null}
r -t 0.218 -s 2 -d 1 -p cbr -e 1000 -c 2 -i 26 -a 2 -x {2.0 1.0 26 ------- null}
+ -t 0.218 -s 2 -d 1 -p cbr -e 1000 -c 2 -i 59 -a 2 -x {2.0 1.0 59 ------- null}
- -t 0.22 -s 2 -d 1 -p cbr -e 1000 -c 2 -i 30 -a 2 -x {2.0 1.0 30 ------- null}
h -t 0.22 -s 2 -d 1 -p cbr -e 1000 -c 2 -i 30 -a 2 -x {2.0 1.0 -1 ------- null}
+ -t 0.22 -s 2 -d 1 -p cbr -e 1000 -c 2 -i 60 -a 2 -x {2.0 1.0 60 ------- null}
r -t 0.222 -s 2 -d 1 -p cbr -e 1000 -c 2 -i 27 -a 2 -x {2.0 1.0 27 ------- null}
+ -t 0.222 -s 2 -d 1 -p cbr -e 1000 -c 2 -i 61 -a 2 -x {2.0 1.0 61 ------- null}
- -t 0.224 -s 2 -d 1 -p cbr -e 1000 -c 2 -i 31 -a 2 -x {2.0 1.0 31 ------- null}
h -t 0.224 -s 2 -d 1 -p cbr -e 1000 -c 2 -i 31 -a 2 -x {2.0 1.0 -1 ------- null}
+ -t 0.224 -s 2 -d 1 -p cbr -e 1000 -c 2 -i 62 -a 2 -x {2.0 1.0 62 ------- null}
r -t 0.226 -s 2 -d 1 -p cbr -e 1000 -c 2 -i 28 -a 2 -x {2.0 1.0 28 ------- null}
+ -t 0.226 -s 2 -d 1 -p cbr -e 1000 -c 2 -i 63 -a 2 -x {2.0 1.0 63 ------- null}
- -t 0.228 -s 2 -d 1 -p cbr -e 1000 -c 2 -i 32 -a 2 -x {2.0 1.0 32 ------- null}
h -t 0.228 -s 2 -d 1 -p cbr -e 1000 -c 2 -i 32 -a 2 -x {2.0 1.0 -1 ------- null}
+ -t 0.228 -s 2 -d 1 -p cbr -e 1000 -c 2 -i 64 -a 2 -x {2.0 1.0 64 ------- null}
r -t 0.23 -s 2 -d 1 -p cbr -e 1000 -c 2 -i 29 -a 2 -x {2.0 1.0 29 ------- null}
+ -t 0.23 -s 2 -d 1 -p cbr -e 1000 -c 2 -i 65 -a 2 -x {2.0 1.0 65 ------- null}
- -t 0.232 -s 2 -d 1 -p cbr -e 1000 -c 2 -i 33 -a 2 -x {2.0 1.0 33 ------- null}
h -t 0.232 -s 2 -d 1 -p cbr -e 1000 -c 2 -i 33 -a 2 -x {2.0 1.0 -1 ------- null}
+ -t 0.232 -s 2 -d 1 -p cbr -e 1000 -c 2 -i 66 -a 2 -x {2.0 1.0 66 ------- null}
r -t 0.234 -s 2 -d 1 -p cbr -e 1000 -c 2 -i 30 -a 2 -x {2.0 1.0 30 ------- null}
+ -t 0.234 -s 2 -d 1 -p cbr -e 1000 -c 2 -i 67 -a 2 -x {2.0 1.0 67 ------- null}
- -t 0.236 -s 2 -d 1 -p cbr -e 1000 -c 2 -i 34 -a 2 -x {2.0 1.0 34 ------- null}
h -t 0.236 -s 2 -d 1 -p cbr -e 1000 -c 2 -i 34 -a 2 -x {2.0 1.0 -1 ------- null}
+ -t 0.236 -s 2 -d 1 -p cbr -e 1000 -c 2 -i 68 -a 2 -x {2.0 1.0 68 ------- null}
r -t 0.238 -s 2 -d 1 -p cbr -e 1000 -c 2 -i 31 -a 2 -x {2.0 1.0 31 ------- null}
+ -t 0.238 -s 2 -d 1 -p cbr -e 1000 -c 2 -i 69 -a 2 -x {2.0 1.0 69 ------- null}
- -t 0.24 -s 2 -d 1 -p cbr -e 1000 -c 2 -i 35 -a 2 -x {2.0 1.0 35 ------- null}
h -t 0.24 -s 2 -d 1 -p cbr -e 1000 -c 2 -i 35 -a 2 -x {2.0 1.0 -1 ------- null}
+ -t 0.24 -s 2 -d 1 -p cbr -e 1000 -c 2 -i 70 -a 2 -x {2.0 1.0 70 ------- null}
r -t 0.242 -s 2 -d 1 -p cbr -e 1000 -c 2 -i 32 -a 2 -x {2.0 1.0 32 ------- null}
+ -t 0.242 -s 2 -d 1 -p cbr -e 1000 -c 2 -i 71 -a 2 -x {2.0 1.0 71 ------- null}
- -t 0.244 -s 2 -d 1 -p cbr -e 1000 -c 2 -i 36 -a 2 -x {2.0 1.0 36 ------- null}
h -t 0.244 -s 2 -d 1 -p cbr -e 1000 -c 2 -i 36 -a 2 -x {2.0 1.0 -1 ------- null}
+ -t 0.244 -s 2 -d 1 -p cbr -e 1000 -c 2 -i 72 -a 2 -x {2.0 1.0 72 ------- null}
r -t 0.246 -s 2 -d 1 -p cbr -e 1000 -c 2 -i 33 -a 2 -x {2.0 1.0 33 ------- null}
+ -t 0.246 -s 2 -d 1 -p cbr -e 1000 -c 2 -i 73 -a 2 -x {2.0 1.0 73 ------- null}
- -t 0.248 -s 2 -d 1 -p cbr -e 1000 -c 2 -i 37 -a 2 -x {2.0 1.0 37 ------- null}
h -t 0.248 -s 2 -d 1 -p cbr -e 1000 -c 2 -i 37 -a 2 -x {2.0 1.0 -1 ------- null}
+ -t 0.248 -s 2 -d 1 -p cbr -e 1000 -c 2 -i 74 -a 2 -x {2.0 1.0 74 ------- null}
r -t 0.25 -s 2 -d 1 -p cbr -e 1000 -c 2 -i 34 -a 2 -x {2.0 1.0 34 ------- null}
+ -t 0.25 -s 2 -d 1 -p cbr -e 1000 -c 2 -i 75 -a 2 -x {2.0 1.0 75 ------- null}
- -t 0.252 -s 2 -d 1 -p cbr -e 1000 -c 2 -i 38 -a 2 -x {2.0 1.0 38 ------- null}
h -t 0.252 -s 2 -d 1 -p cbr -e 1000 -c 2 -i 38 -a 2 -x {2.0 1.0 -1 ------- null}
+ -t 0.252 -s 2 -d 1 -p cbr -e 1000 -c 2 -i 76 -a 2 -x {2.0 1.0 76 ------- null}
r -t 0.254 -s 2 -d 1 -p cbr -e 1000 -c 2 -i 35 -a 2 -x {2.0 1.0 35 ------- null}
+ -t 0.254 -s 2 -d 1 -p cbr -e 1000 -c 2 -i 77 -a 2 -x {2.0 1.0 77 ------- null}
- -t 0.256 -s 2 -d 1 -p cbr -e 1000 -c 2 -i 39 -a 2 -x {2.0 1.0 39 ------- null}
h -t 0.256 -s 2 -d 1 -p cbr -e 1000 -c 2 -i 39 -a 2 -x {2.0 1.0 -1 ------- null}
+ -t 0.256 -s 2 -d 1 -p cbr -e 1000 -c 2 -i 78 -a 2 -x {2.0 1.0 78 ------- null}
r -t 0.258 -s 2 -d 1 -p cbr -e 1000 -c 2 -i 36 -a 2 -x {2.0 1.0 36 ------- null}
+ -t 0.258 -s 2 -d 1 -p cbr -e 1000 -c 2 -i 79 -a 2 -x {2.0 1.0 79 ------- null}
- -t 0.26 -s 2 -d 1 -p cbr -e 1000 -c 2 -i 40 -a 2 -x {2.0 1.0 40 ------- null}
h -t 0.26 -s 2 -d 1 -p cbr -e 1000 -c 2 -i 40 -a 2 -x {2.0 1.0 -1 ------- null}
+ -t 0.26 -s 2 -d 1 -p cbr -e 1000 -c 2 -i 80 -a 2 -x {2.0 1.0 80 ------- null}
r -t 0.262 -s 2 -d 1 -p cbr -e 1000 -c 2 -i 37 -a 2 -x {2.0 1.0 37 ------- null}
+ -t 0.262 -s 2 -d 1 -p cbr -e 1000 -c 2 -i 81 -a 2 -x {2.0 1.0 81 ------- null}
- -t 0.264 -s 2 -d 1 -p cbr -e 1000 -c 2 -i 41 -a 2 -x {2.0 1.0 41 ------- null}
h -t 0.264 -s 2 -d 1 -p cbr -e 1000 -c 2 -i 41 -a 2 -x {2.0 1.0 -1 ------- null}
+ -t 0.264 -s 2 -d 1 -p cbr -e 1000 -c 2 -i 82 -a 2 -x {2.0 1.0 82 ------- null}
r -t 0.266 -s 2 -d 1 -p cbr -e 1000 -c 2 -i 38 -a 2 -x {2.0 1.0 38 ------- null}
+ -t 0.266 -s 2 -d 1 -p cbr -e 1000 -c 2 -i 83 -a 2 -x {2.0 1.0 83 ------- null}
- -t 0.268 -s 2 -d 1 -p cbr -e 1000 -c 2 -i 42 -a 2 -x {2.0 1.0 42 ------- null}
h -t 0.268 -s 2 -d 1 -p cbr -e 1000 -c 2 -i 42 -a 2 -x {2.0 1.0 -1 ------- null}
+ -t 0.268 -s 2 -d 1 -p cbr -e 1000 -c 2 -i 84 -a 2 -x {2.0 1.0 84 ------- null}
r -t 0.27 -s 2 -d 1 -p cbr -e 1000 -c 2 -i 39 -a 2 -x {2.0 1.0 39 ------- null}
+ -t 0.27 -s 2 -d 1 -p cbr -e 1000 -c 2 -i 85 -a 2 -x {2.0 1.0 85 ------- null}
- -t 0.272 -s 2 -d 1 -p cbr -e 1000 -c 2 -i 43 -a 2 -x {2.0 1.0 43 ------- null}
h -t 0.272 -s 2 -d 1 -p cbr -e 1000 -c 2 -i 43 -a 2 -x {2.0 1.0 -1 ------- null}
+ -t 0.272 -s 2 -d 1 -p cbr -e 1000 -c 2 -i 86 -a 2 -x {2.0 1.0 86 ------- null}
r -t 0.274 -s 2 -d 1 -p cbr -e 1000 -c 2 -i 40 -a 2 -x {2.0 1.0 40 ------- null}
+ -t 0.274 -s 2 -d 1 -p cbr -e 1000 -c 2 -i 87 -a 2 -x {2.0 1.0 87 ------- null}
- -t 0.276 -s 2 -d 1 -p cbr -e 1000 -c 2 -i 44 -a 2 -x {2.0 1.0 44 ------- null}
h -t 0.276 -s 2 -d 1 -p cbr -e 1000 -c 2 -i 44 -a 2 -x {2.0 1.0 -1 ------- null}
+ -t 0.276 -s 2 -d 1 -p cbr -e 1000 -c 2 -i 88 -a 2 -x {2.0 1.0 88 ------- null}
r -t 0.278 -s 2 -d 1 -p cbr -e 1000 -c 2 -i 41 -a 2 -x {2.0 1.0 41 ------- null}
+ -t 0.278 -s 2 -d 1 -p cbr -e 1000 -c 2 -i 89 -a 2 -x {2.0 1.0 89 ------- null}
- -t 0.28 -s 2 -d 1 -p cbr -e 1000 -c 2 -i 45 -a 2 -x {2.0 1.0 45 ------- null}
h -t 0.28 -s 2 -d 1 -p cbr -e 1000 -c 2 -i 45 -a 2 -x {2.0 1.0 -1 ------- null}
+ -t 0.28 -s 2 -d 1 -p cbr -e 1000 -c 2 -i 90 -a 2 -x {2.0 1.0 90 ------- null}
r -t 0.282 -s 2 -d 1 -p cbr -e 1000 -c 2 -i 42 -a 2 -x {2.0 1.0 42 ------- null}
+ -t 0.282 -s 2 -d 1 -p cbr -e 1000 -c 2 -i 91 -a 2 -x {2.0 1.0 91 ------- null}
- -t 0.284 -s 2 -d 1 -p cbr -e 1000 -c 2 -i 46 -a 2 -x {2.0 1.0 46 ------- null}
h -t 0.284 -s 2 -d 1 -p cbr -e 1000 -c 2 -i 46 -a 2 -x {2.0 1.0 -1 ------- null}
+ -t 0.284 -s 2 -d 1 -p cbr -e 1000 -c 2 -i 92 -a 2 -x {2.0 1.0 92 ------- null}
r -t 0.286 -s 2 -d 1 -p cbr -e 1000 -c 2 -i 43 -a 2 -x {2.0 1.0 43 ------- null}
+ -t 0.286 -s 2 -d 1 -p cbr -e 1000 -c 2 -i 93 -a 2 -x {2.0 1.0 93 ------- null}
- -t 0.288 -s 2 -d 1 -p cbr -e 1000 -c 2 -i 47 -a 2 -x {2.0 1.0 47 ------- null}
h -t 0.288 -s 2 -d 1 -p cbr -e 1000 -c 2 -i 47 -a 2 -x {2.0 1.0 -1 ------- null}
+ -t 0.288 -s 2 -d 1 -p cbr -e 1000 -c 2 -i 94 -a 2 -x {2.0 1.0 94 ------- null}
r -t 0.29 -s 2 -d 1 -p cbr -e 1000 -c 2 -i 44 -a 2 -x {2.0 1.0 44 ------- null}
+ -t 0.29 -s 2 -d 1 -p cbr -e 1000 -c 2 -i 95 -a 2 -x {2.0 1.0 95 ------- null}
- -t 0.292 -s 2 -d 1 -p cbr -e 1000 -c 2 -i 48 -a 2 -x {2.0 1.0 48 ------- null}
h -t 0.292 -s 2 -d 1 -p cbr -e 1000 -c 2 -i 48 -a 2 -x {2.0 1.0 -1 ------- null}
+ -t 0.292 -s 2 -d 1 -p cbr -e 1000 -c 2 -i 96 -a 2 -x {2.0 1.0 96 ------- null}
r -t 0.294 -s 2 -d 1 -p cbr -e 1000 -c 2 -i 45 -a 2 -x {2.0 1.0 45 ------- null}
+ -t 0.294 -s 2 -d 1 -p cbr -e 1000 -c 2 -i 97 -a 2 -x {2.0 1.0 97 ------- null}
- -t 0.296 -s 2 -d 1 -p cbr -e 1000 -c 2 -i 49 -a 2 -x {2.0 1.0 49 ------- null}
h -t 0.296 -s 2 -d 1 -p cbr -e 1000 -c 2 -i 49 -a 2 -x {2.0 1.0 -1 ------- null}
+ -t 0.296 -s 2 -d 1 -p cbr -e 1000 -c 2 -i 98 -a 2 -x {2.0 1.0 98 ------- null}
r -t 0.298 -s 2 -d 1 -p cbr -e 1000 -c 2 -i 46 -a 2 -x {2.0 1.0 46 ------- null}
+ -t 0.298 -s 2 -d 1 -p cbr -e 1000 -c 2 -i 99 -a 2 -x {2.0 1.0 99 ------- null}
d -t 0.298 -s 2 -d 1 -p cbr -e 1000 -c 2 -i 99 -a 2 -x {2.0 1.0 99 ------- null}
- -t 0.3 -s 2 -d 1 -p cbr -e 1000 -c 2 -i 50 -a 2 -x {2.0 1.0 50 ------- null}
h -t 0.3 -s 2 -d 1 -p cbr -e 1000 -c 2 -i 50 -a 2 -x {2.0 1.0 -1 ------- null}
+ -t 0.3 -s 2 -d 1 -p cbr -e 1000 -c 2 -i 100 -a 2 -x {2.0 1.0 100 ------- null}
r -t 0.302 -s 2 -d 1 -p cbr -e 1000 -c 2 -i 47 -a 2 -x {2.0 1.0 47 ------- null}
+ -t 0.302 -s 2 -d 1 -p cbr -e 1000 -c 2 -i 101 -a 2 -x {2.0 1.0 101 ------- null}
d -t 0.302 -s 2 -d 1 -p cbr -e 1000 -c 2 -i 101 -a 2 -x {2.0 1.0 101 ------- null}
- -t 0.304 -s 2 -d 1 -p cbr -e 1000 -c 2 -i 51 -a 2 -x {2.0 1.0 51 ------- null}
h -t 0.304 -s 2 -d 1 -p cbr -e 1000 -c 2 -i 51 -a 2 -x {2.0 1.0 -1 ------- null}
+ -t 0.304 -s 2 -d 1 -p cbr -e 1000 -c 2 -i 102 -a 2 -x {2.0 1.0 102 ------- null}
r -t 0.306 -s 2 -d 1 -p cbr -e 1000 -c 2 -i 48 -a 2 -x {2.0 1.0 48 ------- null}
+ -t 0.306 -s 2 -d 1 -p cbr -e 1000 -c 2 -i 103 -a 2 -x {2.0 1.0 103 ------- null}
d -t 0.306 -s 2 -d 1 -p cbr -e 1000 -c 2 -i 103 -a 2 -x {2.0 1.0 103 ------- null}
- -t 0.308 -s 2 -d 1 -p cbr -e 1000 -c 2 -i 52 -a 2 -x {2.0 1.0 52 ------- null}
h -t 0.308 -s 2 -d 1 -p cbr -e 1000 -c 2 -i 52 -a 2 -x {2.0 1.0 -1 ------- null}
+ -t 0.308 -s 2 -d 1 -p cbr -e 1000 -c 2 -i 104 -a 2 -x {2.0 1.0 104 ------- null}
r -t 0.31 -s 2 -d 1 -p cbr -e 1000 -c 2 -i 49 -a 2 -x {2.0 1.0 49 ------- null}
+ -t 0.31 -s 2 -d 1 -p cbr -e 1000 -c 2 -i 105 -a 2 -x {2.0 1.0 105 ------- null}
d -t 0.31 -s 2 -d 1 -p cbr -e 1000 -c 2 -i 105 -a 2 -x {2.0 1.0 105 ------- null}
- -t 0.312 -s 2 -d 1 -p cbr -e 1000 -c 2 -i 53 -a 2 -x {2.0 1.0 53 ------- null}
h -t 0.312 -s 2 -d 1 -p cbr -e 1000 -c 2 -i 53 -a 2 -x {2.0 1.0 -1 ------- null}
+ -t 0.312 -s 2 -d 1 -p cbr -e 1000 -c 2 -i 106 -a 2 -x {2.0 1.0 106 ------- null}
r -t 0.314 -s 2 -d 1 -p cbr -e 1000 -c 2 -i 50 -a 2 -x {2.0 1.0 50 ------- null}
+ -t 0.314 -s 2 -d 1 -p cbr -e 1000 -c 2 -i 107 -a 2 -x {2.0 1.0 107 ------- null}
d -t 0.314 -s 2 -d 1 -p cbr -e 1000 -c 2 -i 107 -a 2 -x {2.0 1.0 107 ------- null}
- -t 0.316 -s 2 -d 1 -p cbr -e 1000 -c 2 -i 54 -a 2 -x {2.0 1.0 54 ------- null}
h -t 0.316 -s 2 -d 1 -p cbr -e 1000 -c 2 -i 54 -a 2 -x {2.0 1.0 -1 ------- null}
+ -t 0.316 -s 2 -d 1 -p cbr -e 1000 -c 2 -i 108 -a 2 -x {2.0 1.0 108 ------- null}
r -t 0.318 -s 2 -d 1 -p cbr -e 1000 -c 2 -i 51 -a 2 -x {2.0 1.0 51 ------- null}
+ -t 0.318 -s 2 -d 1 -p cbr -e 1000 -c 2 -i 109 -a 2 -x {2.0 1.0 109 ------- null}
d -t 0.318 -s 2 -d 1 -p cbr -e 1000 -c 2 -i 109 -a 2 -x {2.0 1.0 109 ------- null}
- -t 0.32 -s 2 -d 1 -p cbr -e 1000 -c 2 -i 55 -a 2 -x {2.0 1.0 55 ------- null}
h -t 0.32 -s 2 -d 1 -p cbr -e 1000 -c 2 -i 55 -a 2 -x {2.0 1.0 -1 ------- null}
+ -t 0.32 -s 2 -d 1 -p cbr -e 1000 -c 2 -i 110 -a 2 -x {2.0 1.0 110 ------- null}
r -t 0.322 -s 2 -d 1 -p cbr -e 1000 -c 2 -i 52 -a 2 -x {2.0 1.0 52 ------- null}
+ -t 0.322 -s 2 -d 1 -p cbr -e 1000 -c 2 -i 111 -a 2 -x {2.0 1.0 111 ------- null}
d -t 0.322 -s 2 -d 1 -p cbr -e 1000 -c 2 -i 111 -a 2 -x {2.0 1.0 111 ------- null}
- -t 0.324 -s 2 -d 1 -p cbr -e 1000 -c 2 -i 56 -a 2 -x {2.0 1.0 56 ------- null}
h -t 0.324 -s 2 -d 1 -p cbr -e 1000 -c 2 -i 56 -a 2 -x {2.0 1.0 -1 ------- null}
+ -t 0.324 -s 2 -d 1 -p cbr -e 1000 -c 2 -i 112 -a 2 -x {2.0 1.0 112 ------- null}
r -t 0.326 -s 2 -d 1 -p cbr -e 1000 -c 2 -i 53 -a 2 -x {2.0 1.0 53 ------- null}
+ -t 0.326 -s 2 -d 1 -p cbr -e 1000 -c 2 -i 113 -a 2 -x {2.0 1.0 113 ------- null}
d -t 0.326 -s 2 -d 1 -p cbr -e 1000 -c 2 -i 113 -a 2 -x {2.0 1.0 113 ------- null}
- -t 0.328 -s 2 -d 1 -p cbr -e 1000 -c 2 -i 57 -a 2 -x {2.0 1.0 57 ------- null}
h -t 0.328 -s 2 -d 1 -p cbr -e 1000 -c 2 -i 57 -a 2 -x {2.0 1.0 -1 ------- null}
+ -t 0.328 -s 2 -d 1 -p cbr -e 1000 -c 2 -i 114 -a 2 -x {2.0 1.0 114 ------- null}
r -t 0.33 -s 2 -d 1 -p cbr -e 1000 -c 2 -i 54 -a 2 -x {2.0 1.0 54 ------- null}
+ -t 0.33 -s 2 -d 1 -p cbr -e 1000 -c 2 -i 115 -a 2 -x {2.0 1.0 115 ------- null}
d -t 0.33 -s 2 -d 1 -p cbr -e 1000 -c 2 -i 115 -a 2 -x {2.0 1.0 115 ------- null}
- -t 0.332 -s 2 -d 1 -p cbr -e 1000 -c 2 -i 58 -a 2 -x {2.0 1.0 58 ------- null}
h -t 0.332 -s 2 -d 1 -p cbr -e 1000 -c 2 -i 58 -a 2 -x {2.0 1.0 -1 ------- null}
+ -t 0.332 -s 2 -d 1 -p cbr -e 1000 -c 2 -i 116 -a 2 -x {2.0 1.0 116 ------- null}
r -t 0.334 -s 2 -d 1 -p cbr -e 1000 -c 2 -i 55 -a 2 -x {2.0 1.0 55 ------- null}
+ -t 0.334 -s 2 -d 1 -p cbr -e 1000 -c 2 -i 117 -a 2 -x {2.0 1.0 117 ------- null}
d -t 0.334 -s 2 -d 1 -p cbr -e 1000 -c 2 -i 117 -a 2 -x {2.0 1.0 117 ------- null}
- -t 0.336 -s 2 -d 1 -p cbr -e 1000 -c 2 -i 59 -a 2 -x {2.0 1.0 59 ------- null}
h -t 0.336 -s 2 -d 1 -p cbr -e 1000 -c 2 -i 59 -a 2 -x {2.0 1.0 -1 ------- null}
+ -t 0.336 -s 2 -d 1 -p cbr -e 1000 -c 2 -i 118 -a 2 -x {2.0 1.0 118 ------- null}
r -t 0.338 -s 2 -d 1 -p cbr -e 1000 -c 2 -i 56 -a 2 -x {2.0 1.0 56 ------- null}
+ -t 0.338 -s 2 -d 1 -p cbr -e 1000 -c 2 -i 119 -a 2 -x {2.0 1.0 119 ------- null}
d -t 0.338 -s 2 -d 1 -p cbr -e 1000 -c 2 -i 119 -a 2 -x {2.0 1.0 119 ------- null}
- -t 0.34 -s 2 -d 1 -p cbr -e 1000 -c 2 -i 60 -a 2 -x {2.0 1.0 60 ------- null}
h -t 0.34 -s 2 -d 1 -p cbr -e 1000 -c 2 -i 60 -a 2 -x {2.0 1.0 -1 ------- null}
+ -t 0.34 -s 2 -d 1 -p cbr -e 1000 -c 2 -i 120 -a 2 -x {2.0 1.0 120 ------- null}
r -t 0.342 -s 2 -d 1 -p cbr -e 1000 -c 2 -i 57 -a 2 -x {2.0 1.0 57 ------- null}
+ -t 0.342 -s 2 -d 1 -p cbr -e 1000 -c 2 -i 121 -a 2 -x {2.0 1.0 121 ------- null}
d -t 0.342 -s 2 -d 1 -p cbr -e 1000 -c 2 -i 121 -a 2 -x {2.0 1.0 121 ------- null}
- -t 0.344 -s 2 -d 1 -p cbr -e 1000 -c 2 -i 61 -a 2 -x {2.0 1.0 61 ------- null}
h -t 0.344 -s 2 -d 1 -p cbr -e 1000 -c 2 -i 61 -a 2 -x {2.0 1.0 -1 ------- null}
+ -t 0.344 -s 2 -d 1 -p cbr -e 1000 -c 2 -i 122 -a 2 -x {2.0 1.0 122 ------- null}
r -t 0.346 -s 2 -d 1 -p cbr -e 1000 -c 2 -i 58 -a 2 -x {2.0 1.0 58 ------- null}
+ -t 0.346 -s 2 -d 1 -p cbr -e 1000 -c 2 -i 123 -a 2 -x {2.0 1.0 123 ------- null}
d -t 0.346 -s 2 -d 1 -p cbr -e 1000 -c 2 -i 123 -a 2 -x {2.0 1.0 123 ------- null}
- -t 0.348 -s 2 -d 1 -p cbr -e 1000 -c 2 -i 62 -a 2 -x {2.0 1.0 62 ------- null}
h -t 0.348 -s 2 -d 1 -p cbr -e 1000 -c 2 -i 62 -a 2 -x {2.0 1.0 -1 ------- null}
+ -t 0.348 -s 2 -d 1 -p cbr -e 1000 -c 2 -i 124 -a 2 -x {2.0 1.0 124 ------- null}
r -t 0.35 -s 2 -d 1 -p cbr -e 1000 -c 2 -i 59 -a 2 -x {2.0 1.0 59 ------- null}
+ -t 0.35 -s 2 -d 1 -p cbr -e 1000 -c 2 -i 125 -a 2 -x {2.0 1.0 125 ------- null}
d -t 0.35 -s 2 -d 1 -p cbr -e 1000 -c 2 -i 125 -a 2 -x {2.0 1.0 125 ------- null}
- -t 0.352 -s 2 -d 1 -p cbr -e 1000 -c 2 -i 63 -a 2 -x {2.0 1.0 63 ------- null}
h -t 0.352 -s 2 -d 1 -p cbr -e 1000 -c 2 -i 63 -a 2 -x {2.0 1.0 -1 ------- null}
+ -t 0.352 -s 2 -d 1 -p cbr -e 1000 -c 2 -i 126 -a 2 -x {2.0 1.0 126 ------- null}
r -t 0.354 -s 2 -d 1 -p cbr -e 1000 -c 2 -i 60 -a 2 -x {2.0 1.0 60 ------- null}
+ -t 0.354 -s 2 -d 1 -p cbr -e 1000 -c 2 -i 127 -a 2 -x {2.0 1.0 127 ------- null}
d -t 0.354 -s 2 -d 1 -p cbr -e 1000 -c 2 -i 127 -a 2 -x {2.0 1.0 127 ------- null}
- -t 0.356 -s 2 -d 1 -p cbr -e 1000 -c 2 -i 64 -a 2 -x {2.0 1.0 64 ------- null}
h -t 0.356 -s 2 -d 1 -p cbr -e 1000 -c 2 -i 64 -a 2 -x {2.0 1.0 -1 ------- null}
+ -t 0.356 -s 2 -d 1 -p cbr -e 1000 -c 2 -i 128 -a 2 -x {2.0 1.0 128 ------- null}
r -t 0.358 -s 2 -d 1 -p cbr -e 1000 -c 2 -i 61 -a 2 -x {2.0 1.0 61 ------- null}
+ -t 0.358 -s 2 -d 1 -p cbr -e 1000 -c 2 -i 129 -a 2 -x {2.0 1.0 129 ------- null}
d -t 0.358 -s 2 -d 1 -p cbr -e 1000 -c 2 -i 129 -a 2 -x {2.0 1.0 129 ------- null}
- -t 0.36 -s 2 -d 1 -p cbr -e 1000 -c 2 -i 65 -a 2 -x {2.0 1.0 65 ------- null}
h -t 0.36 -s 2 -d 1 -p cbr -e 1000 -c 2 -i 65 -a 2 -x {2.0 1.0 -1 ------- null}
+ -t 0.36 -s 2 -d 1 -p cbr -e 1000 -c 2 -i 130 -a 2 -x {2.0 1.0 130 ------- null}
r -t 0.362 -s 2 -d 1 -p cbr -e 1000 -c 2 -i 62 -a 2 -x {2.0 1.0 62 ------- null}
+ -t 0.362 -s 2 -d 1 -p cbr -e 1000 -c 2 -i 131 -a 2 -x {2.0 1.0 131 ------- null}
d -t 0.362 -s 2 -d 1 -p cbr -e 1000 -c 2 -i 131 -a 2 -x {2.0 1.0 131 ------- null}
- -t 0.364 -s 2 -d 1 -p cbr -e 1000 -c 2 -i 66 -a 2 -x {2.0 1.0 66 ------- null}
h -t 0.364 -s 2 -d 1 -p cbr -e 1000 -c 2 -i 66 -a 2 -x {2.0 1.0 -1 ------- null}
+ -t 0.364 -s 2 -d 1 -p cbr -e 1000 -c 2 -i 132 -a 2 -x {2.0 1.0 132 ------- null}
r -t 0.366 -s 2 -d 1 -p cbr -e 1000 -c 2 -i 63 -a 2 -x {2.0 1.0 63 ------- null}
+ -t 0.366 -s 2 -d 1 -p cbr -e 1000 -c 2 -i 133 -a 2 -x {2.0 1.0 133 ------- null}
d -t 0.366 -s 2 -d 1 -p cbr -e 1000 -c 2 -i 133 -a 2 -x {2.0 1.0 133 ------- null}
- -t 0.368 -s 2 -d 1 -p cbr -e 1000 -c 2 -i 67 -a 2 -x {2.0 1.0 67 ------- null}
h -t 0.368 -s 2 -d 1 -p cbr -e 1000 -c 2 -i 67 -a 2 -x {2.0 1.0 -1 ------- null}
+ -t 0.368 -s 2 -d 1 -p cbr -e 1000 -c 2 -i 134 -a 2 -x {2.0 1.0 134 ------- null}
r -t 0.37 -s 2 -d 1 -p cbr -e 1000 -c 2 -i 64 -a 2 -x {2.0 1.0 64 ------- null}
+ -t 0.37 -s 2 -d 1 -p cbr -e 1000 -c 2 -i 135 -a 2 -x {2.0 1.0 135 ------- null}
d -t 0.37 -s 2 -d 1 -p cbr -e 1000 -c 2 -i 135 -a 2 -x {2.0 1.0 135 ------- null}
- -t 0.372 -s 2 -d 1 -p cbr -e 1000 -c 2 -i 68 -a 2 -x {2.0 1.0 68 ------- null}
h -t 0.372 -s 2 -d 1 -p cbr -e 1000 -c 2 -i 68 -a 2 -x {2.0 1.0 -1 ------- null}
+ -t 0.372 -s 2 -d 1 -p cbr -e 1000 -c 2 -i 136 -a 2 -x {2.0 1.0 136 ------- null}
r -t 0.374 -s 2 -d 1 -p cbr -e 1000 -c 2 -i 65 -a 2 -x {2.0 1.0 65 ------- null}