V -t * -v 1.0a5 -a 0
A -t * -n 1 -p 0 -o 0x7fffffff -c 30 -a 1
A -t * -h 1 -m 1073741823 -s 0
c -t * -i 1 -n Blue
c -t * -i 2 -n Red
n -t * -a 4 -s 4 -S UP -v circle -c black -i black
n -t * -a 0 -s 0 -S UP -v circle -c black -i black
n -t * -a 5 -s 5 -S UP -v circle -c black -i black
n -t * -a 1 -s 1 -S UP -v circle -c black -i black
n -t * -a 2 -s 2 -S UP -v circle -c black -i black
n -t * -a 3 -s 3 -S UP -v circle -c black -i black
l -t * -s 0 -d 1 -S UP -r 10000000 -D 0.01 -c black
l -t * -s 4 -d 1 -S UP -r 10000000 -D 0.01 -c black
l -t * -s 1 -d 2 -S UP -r 10000000 -D 0.01 -c black
l -t * -s 2 -d 3 -S UP -r 10000000 -D 0.01 -c black
l -t * -s 2 -d 5 -S UP -r 10000000 -D 0.01 -c black
+ -t 0.1 -s 0 -d 1 -p tcp -e 40 -c 1 -i 0 -a 1 -x {0.0 3.0 0 ------- null}
- -t 0.1 -s 0 -d 1 -p tcp -e 40 -c 1 -i 0 -a 1 -x {0.0 3.0 0 ------- null}
h -t 0.1 -s 0 -d 1 -p tcp -e 40 -c 1 -i 0 -a 1 -x {0.0 3.0 -1 ------- null}
+ -t 0.1 -s 4 -d 1 -p tcp -e 1000 -c 1 -i 1 -a 1 -x {4.0 5.0 0 ------- null}
- -t 0.1 -s 4 -d 1 -p tcp -e 1000 -c 1 -i 1 -a 1 -x {4.0 5.0 0 ------- null}
h -t 0.1 -s 4 -d 1 -p tcp -e 1000 -c 1 -i 1 -a 1 -x {4.0 5.0 -1 ------- null}
r -t 0.110032 -s 0 -d 1 -p tcp -e 40 -c 1 -i 0 -a 1 -x {0.0 3.0 0 ------- null}
+ -t 0.110032 -s 1 -d 2 -p tcp -e 40 -c 1 -i 0 -a 1 -x {0.0 3.0 0 ------- null}
- -t 0.110032 -s 1 -d 2 -p tcp -e 40 -c 1 -i 0 -a 1 -x {0.0 3.0 0 ------- null}
h -t 0.110032 -s 1 -d 2 -p tcp -e 40 -c 1 -i 0 -a 1 -x {0.0 3.0 -1 ------- null}
r -t 0.1108 -s 4 -d 1 -p tcp -e 1000 -c 1 -i 1 -a 1 -x {4.0 5.0 0 ------- null}
+ -t 0.1108 -s 1 -d 2 -p tcp -e 1000 -c 1 -i 1 -a 1 -x {4.0 5.0 0 ------- null}
- -t 0.1108 -s 1 -d 2 -p tcp -e 1000 -c 1 -i 1 -a 1 -x {4.0 5.0 0 ------- null}
h -t 0.1108 -s 1 -d 2 -p tcp -e 1000 -c 1 -i 1 -a 1 -x {4.0 5.0 -1 ------- null}
r -t 0.120064 -s 1 -d 2 -p tcp -e 40 -c 1 -i 0 -a 1 -x {0.0 3.0 0 ------- null}
+ -t 0.120064 -s 2 -d 3 -p tcp -e 40 -c 1 -i 0 -a 1 -x {0.0 3.0 0 ------- null}
- -t 0.120064 -s 2 -d 3 -p tcp -e 40 -c 1 -i 0 -a 1 -x {0.0 3.0 0 ------- null}
h -t 0.120064 -s 2 -d 3 -p tcp -e 40 -c 1 -i 0 -a 1 -x {0.0 3.0 -1 ------- null}
r -t 0.1216 -s 1 -d 2 -p tcp -e 1000 -c 1 -i 1 -a 1 -x {4.0 5.0 0 ------- null}
+ -t 0.1216 -s 2 -d 5 -p tcp -e 1000 -c 1 -i 1 -a 1 -x {4.0 5.0 0 ------- null}
- -t 0.1216 -s 2 -d 5 -p tcp -e 1000 -c 1 -i 1 -a 1 -x {4.0 5.0 0 ------- null}
h -t 0.1216 -s 2 -d 5 -p tcp -e 1000 -c 1 -i 1 -a 1 -x {4.0 5.0 -1 ------- null}
r -t 0.130096 -s 2 -d 3 -p tcp -e 40 -c 1 -i 0 -a 1 -x {0.0 3.0 0 ------- null}
+ -t 0.130096 -s 3 -d 2 -p ack -e 40 -c 1 -i 2 -a 1 -x {3.0 0.0 0 ------- null}
- -t 0.130096 -s 3 -d 2 -p ack -e 40 -c 1 -i 2 -a 1 -x {3.0 0.0 0 ------- null}
h -t 0.130096 -s 3 -d 2 -p ack -e 40 -c 1 -i 2 -a 1 -x {3.0 0.0 -1 ------- null}
r -t 0.1324 -s 2 -d 5 -p tcp -e 1000 -c 1 -i 1 -a 1 -x {4.0 5.0 0 ------- null}
+ -t 0.1324 -s 5 -d 2 -p ack -e 40 -c 1 -i 3 -a 1 -x {5.0 4.0 0 ------- null}
- -t 0.1324 -s 5 -d 2 -p ack -e 40 -c 1 -i 3 -a 1 -x {5.0 4.0 0 ------- null}
h -t 0.1324 -s 5 -d 2 -p ack -e 40 -c 1 -i 3 -a 1 -x {5.0 4.0 -1 ------- null}
r -t 0.140128 -s 3 -d 2 -p ack -e 40 -c 1 -i 2 -a 1 -x {3.0 0.0 0 ------- null}
+ -t 0.140128 -s 2 -d 1 -p ack -e 40 -c 1 -i 2 -a 1 -x {3.0 0.0 0 ------- null}
- -t 0.140128 -s 2 -d 1 -p ack -e 40 -c 1 -i 2 -a 1 -x {3.0 0.0 0 ------- null}
h -t 0.140128 -s 2 -d 1 -p ack -e 40 -c 1 -i 2 -a 1 -x {3.0 0.0 -1 ------- null}
r -t 0.142432 -s 5 -d 2 -p ack -e 40 -c 1 -i 3 -a 1 -x {5.0 4.0 0 ------- null}
+ -t 0.142432 -s 2 -d 1 -p ack -e 40 -c 1 -i 3 -a 1 -x {5.0 4.0 0 ------- null}
- -t 0.142432 -s 2 -d 1 -p ack -e 40 -c 1 -i 3 -a 1 -x {5.0 4.0 0 ------- null}
h -t 0.142432 -s 2 -d 1 -p ack -e 40 -c 1 -i 3 -a 1 -x {5.0 4.0 -1 ------- null}
r -t 0.15016 -s 2 -d 1 -p ack -e 40 -c 1 -i 2 -a 1 -x {3.0 0.0 0 ------- null}
+ -t 0.15016 -s 1 -d 0 -p ack -e 40 -c 1 -i 2 -a 1 -x {3.0 0.0 0 ------- null}
- -t 0.15016 -s 1 -d 0 -p ack -e 40 -c 1 -i 2 -a 1 -x {3.0 0.0 0 ------- null}
h -t 0.15016 -s 1 -d 0 -p ack -e 40 -c 1 -i 2 -a 1 -x {3.0 0.0 -1 ------- null}
r -t 0.152464 -s 2 -d 1 -p ack -e 40 -c 1 -i 3 -a 1 -x {5.0 4.0 0 ------- null}
+ -t 0.152464 -s 1 -d 4 -p ack -e 40 -c 1 -i 3 -a 1 -x {5.0 4.0 0 ------- null}
- -t 0.152464 -s 1 -d 4 -p ack -e 40 -c 1 -i 3 -a 1 -x {5.0 4.0 0 ------- null}
h -t 0.152464 -s 1 -d 4 -p ack -e 40 -c 1 -i 3 -a 1 -x {5.0 4.0 -1 ------- null}
r -t 0.160192 -s 1 -d 0 -p ack -e 40 -c 1 -i 2 -a 1 -x {3.0 0.0 0 ------- null}
+ -t 0.160192 -s 0 -d 1 -p tcp -e 1040 -c 1 -i 4 -a 1 -x {0.0 3.0 1 ------- null}
- -t 0.160192 -s 0 -d 1 -p tcp -e 1040 -c 1 -i 4 -a 1 -x {0.0 3.0 1 ------- null}
h -t 0.160192 -s 0 -d 1 -p tcp -e 1040 -c 1 -i 4 -a 1 -x {0.0 3.0 -1 ------- null}
+ -t 0.160192 -s 0 -d 1 -p tcp -e 1040 -c 1 -i 5 -a 1 -x {0.0 3.0 2 ------- null}
- -t 0.161024 -s 0 -d 1 -p tcp -e 1040 -c 1 -i 5 -a 1 -x {0.0 3.0 2 ------- null}
h -t 0.161024 -s 0 -d 1 -p tcp -e 1040 -c 1 -i 5 -a 1 -x {0.0 3.0 -1 ------- null}
r -t 0.162496 -s 1 -d 4 -p ack -e 40 -c 1 -i 3 -a 1 -x {5.0 4.0 0 ------- null}
+ -t 0.162496 -s 4 -d 1 -p tcp -e 1000 -c 1 -i 6 -a 1 -x {4.0 5.0 1 ------- null}
- -t 0.162496 -s 4 -d 1 -p tcp -e 1000 -c 1 -i 6 -a 1 -x {4.0 5.0 1 ------- null}
h -t 0.162496 -s 4 -d 1 -p tcp -e 1000 -c 1 -i 6 -a 1 -x {4.0 5.0 -1 ------- null}
r -t 0.171024 -s 0 -d 1 -p tcp -e 1040 -c 1 -i 4 -a 1 -x {0.0 3.0 1 ------- null}
+ -t 0.171024 -s 1 -d 2 -p tcp -e 1040 -c 1 -i 4 -a 1 -x {0.0 3.0 1 ------- null}
- -t 0.171024 -s 1 -d 2 -p tcp -e 1040 -c 1 -i 4 -a 1 -x {0.0 3.0 1 ------- null}
h -t 0.171024 -s 1 -d 2 -p tcp -e 1040 -c 1 -i 4 -a 1 -x {0.0 3.0 -1 ------- null}
r -t 0.171856 -s 0 -d 1 -p tcp -e 1040 -c 1 -i 5 -a 1 -x {0.0 3.0 2 ------- null}
+ -t 0.171856 -s 1 -d 2 -p tcp -e 1040 -c 1 -i 5 -a 1 -x {0.0 3.0 2 ------- null}
- -t 0.171856 -s 1 -d 2 -p tcp -e 1040 -c 1 -i 5 -a 1 -x {0.0 3.0 2 ------- null}
h -t 0.171856 -s 1 -d 2 -p tcp -e 1040 -c 1 -i 5 -a 1 -x {0.0 3.0 -1 ------- null}
r -t 0.173296 -s 4 -d 1 -p tcp -e 1000 -c 1 -i 6 -a 1 -x {4.0 5.0 1 ------- null}
+ -t 0.173296 -s 1 -d 2 -p tcp -e 1000 -c 1 -i 6 -a 1 -x {4.0 5.0 1 ------- null}
- -t 0.173296 -s 1 -d 2 -p tcp -e 1000 -c 1 -i 6 -a 1 -x {4.0 5.0 1 ------- null}
h -t 0.173296 -s 1 -d 2 -p tcp -e 1000 -c 1 -i 6 -a 1 -x {4.0 5.0 -1 ------- null}
r -t 0.181856 -s 1 -d 2 -p tcp -e 1040 -c 1 -i 4 -a 1 -x {0.0 3.0 1 ------- null}
+ -t 0.181856 -s 2 -d 3 -p tcp -e 1040 -c 1 -i 4 -a 1 -x {0.0 3.0 1 ------- null}
- -t 0.181856 -s 2 -d 3 -p tcp -e 1040 -c 1 -i 4 -a 1 -x {0.0 3.0 1 ------- null}
h -t 0.181856 -s 2 -d 3 -p tcp -e 1040 -c 1 -i 4 -a 1 -x {0.0 3.0 -1 ------- null}
r -t 0.182688 -s 1 -d 2 -p tcp -e 1040 -c 1 -i 5 -a 1 -x {0.0 3.0 2 ------- null}
+ -t 0.182688 -s 2 -d 3 -p tcp -e 1040 -c 1 -i 5 -a 1 -x {0.0 3.0 2 ------- null}
- -t 0.182688 -s 2 -d 3 -p tcp -e 1040 -c 1 -i 5 -a 1 -x {0.0 3.0 2 ------- null}
h -t 0.182688 -s 2 -d 3 -p tcp -e 1040 -c 1 -i 5 -a 1 -x {0.0 3.0 -1 ------- null}
r -t 0.184096 -s 1 -d 2 -p tcp -e 1000 -c 1 -i 6 -a 1 -x {4.0 5.0 1 ------- null}
+ -t 0.184096 -s 2 -d 5 -p tcp -e 1000 -c 1 -i 6 -a 1 -x {4.0 5.0 1 ------- null}
- -t 0.184096 -s 2 -d 5 -p tcp -e 1000 -c 1 -i 6 -a 1 -x {4.0 5.0 1 ------- null}
h -t 0.184096 -s 2 -d 5 -p tcp -e 1000 -c 1 -i 6 -a 1 -x {4.0 5.0 -1 ------- null}
r -t 0.192688 -s 2 -d 3 -p tcp -e 1040 -c 1 -i 4 -a 1 -x {0.0 3.0 1 ------- null}
+ -t 0.192688 -s 3 -d 2 -p ack -e 40 -c 1 -i 7 -a 1 -x {3.0 0.0 1 ------- null}
- -t 0.192688 -s 3 -d 2 -p ack -e 40 -c 1 -i 7 -a 1 -x {3.0 0.0 1 ------- null}
h -t 0.192688 -s 3 -d 2 -p ack -e 40 -c 1 -i 7 -a 1 -x {3.0 0.0 -1 ------- null}
r -t 0.19352 -s 2 -d 3 -p tcp -e 1040 -c 1 -i 5 -a 1 -x {0.0 3.0 2 ------- null}
+ -t 0.19352 -s 3 -d 2 -p ack -e 40 -c 1 -i 8 -a 1 -x {3.0 0.0 2 ------- null}
- -t 0.19352 -s 3 -d 2 -p ack -e 40 -c 1 -i 8 -a 1 -x {3.0 0.0 2 ------- null}
h -t 0.19352 -s 3 -d 2 -p ack -e 40 -c 1 -i 8 -a 1 -x {3.0 0.0 -1 ------- null}
r -t 0.194896 -s 2 -d 5 -p tcp -e 1000 -c 1 -i 6 -a 1 -x {4.0 5.0 1 ------- null}
+ -t 0.194896 -s 5 -d 2 -p ack -e 40 -c 1 -i 9 -a 1 -x {5.0 4.0 1 ------- null}
- -t 0.194896 -s 5 -d 2 -p ack -e 40 -c 1 -i 9 -a 1 -x {5.0 4.0 1 ------- null}
h -t 0.194896 -s 5 -d 2 -p ack -e 40 -c 1 -i 9 -a 1 -x {5.0 4.0 -1 ------- null}
r -t 0.20272 -s 3 -d 2 -p ack -e 40 -c 1 -i 7 -a 1 -x {3.0 0.0 1 ------- null}
+ -t 0.20272 -s 2 -d 1 -p ack -e 40 -c 1 -i 7 -a 1 -x {3.0 0.0 1 ------- null}
- -t 0.20272 -s 2 -d 1 -p ack -e 40 -c 1 -i 7 -a 1 -x {3.0 0.0 1 ------- null}
h -t 0.20272 -s 2 -d 1 -p ack -e 40 -c 1 -i 7 -a 1 -x {3.0 0.0 -1 ------- null}
r -t 0.203552 -s 3 -d 2 -p ack -e 40 -c 1 -i 8 -a 1 -x {3.0 0.0 2 ------- null}
+ -t 0.203552 -s 2 -d 1 -p ack -e 40 -c 1 -i 8 -a 1 -x {3.0 0.0 2 ------- null}
- -t 0.203552 -s 2 -d 1 -p ack -e 40 -c 1 -i 8 -a 1 -x {3.0 0.0 2 ------- null}
h -t 0.203552 -s 2 -d 1 -p ack -e 40 -c 1 -i 8 -a 1 -x {3.0 0.0 -1 ------- null}
r -t 0.204928 -s 5 -d 2 -p ack -e 40 -c 1 -i 9 -a 1 -x {5.0 4.0 1 ------- null}
+ -t 0.204928 -s 2 -d 1 -p ack -e 40 -c 1 -i 9 -a 1 -x {5.0 4.0 1 ------- null}
- -t 0.204928 -s 2 -d 1 -p ack -e 40 -c 1 -i 9 -a 1 -x {5.0 4.0 1 ------- null}
h -t 0.204928 -s 2 -d 1 -p ack -e 40 -c 1 -i 9 -a 1 -x {5.0 4.0 -1 ------- null}
r -t 0.212752 -s 2 -d 1 -p ack -e 40 -c 1 -i 7 -a 1 -x {3.0 0.0 1 ------- null}
+ -t 0.212752 -s 1 -d 0 -p ack -e 40 -c 1 -i 7 -a 1 -x {3.0 0.0 1 ------- null}
- -t 0.212752 -s 1 -d 0 -p ack -e 40 -c 1 -i 7 -a 1 -x {3.0 0.0 1 ------- null}
h -t 0.212752 -s 1 -d 0 -p ack -e 40 -c 1 -i 7 -a 1 -x {3.0 0.0 -1 ------- null}
r -t 0.213584 -s 2 -d 1 -p ack -e 40 -c 1 -i 8 -a 1 -x {3.0 0.0 2 ------- null}
+ -t 0.213584 -s 1 -d 0 -p ack -e 40 -c 1 -i 8 -a 1 -x {3.0 0.0 2 ------- null}
- -t 0.213584 -s 1 -d 0 -p ack -e 40 -c 1 -i 8 -a 1 -x {3.0 0.0 2 ------- null}
h -t 0.213584 -s 1 -d 0 -p ack -e 40 -c 1 -i 8 -a 1 -x {3.0 0.0 -1 ------- null}
r -t 0.21496 -s 2 -d 1 -p ack -e 40 -c 1 -i 9 -a 1 -x {5.0 4.0 1 ------- null}
+ -t 0.21496 -s 1 -d 4 -p ack -e 40 -c 1 -i 9 -a 1 -x {5.0 4.0 1 ------- null}
- -t 0.21496 -s 1 -d 4 -p ack -e 40 -c 1 -i 9 -a 1 -x {5.0 4.0 1 ------- null}
h -t 0.21496 -s 1 -d 4 -p ack -e 40 -c 1 -i 9 -a 1 -x {5.0 4.0 -1 ------- null}
r -t 0.222784 -s 1 -d 0 -p ack -e 40 -c 1 -i 7 -a 1 -x {3.0 0.0 1 ------- null}
+ -t 0.222784 -s 0 -d 1 -p tcp -e 1040 -c 1 -i 10 -a 1 -x {0.0 3.0 3 ------- null}
- -t 0.222784 -s 0 -d 1 -p tcp -e 1040 -c 1 -i 10 -a 1 -x {0.0 3.0 3 ------- null}
h -t 0.222784 -s 0 -d 1 -p tcp -e 1040 -c 1 -i 10 -a 1 -x {0.0 3.0 -1 ------- null}
+ -t 0.222784 -s 0 -d 1 -p tcp -e 1040 -c 1 -i 11 -a 1 -x {0.0 3.0 4 ------- null}
r -t 0.223616 -s 1 -d 0 -p ack -e 40 -c 1 -i 8 -a 1 -x {3.0 0.0 2 ------- null}
+ -t 0.223616 -s 0 -d 1 -p tcp -e 1040 -c 1 -i 12 -a 1 -x {0.0 3.0 5 ------- null}
+ -t 0.223616 -s 0 -d 1 -p tcp -e 1040 -c 1 -i 13 -a 1 -x {0.0 3.0 6 ------- null}
- -t 0.223616 -s 0 -d 1 -p tcp -e 1040 -c 1 -i 11 -a 1 -x {0.0 3.0 4 ------- null}
h -t 0.223616 -s 0 -d 1 -p tcp -e 1040 -c 1 -i 11 -a 1 -x {0.0 3.0 -1 ------- null}
- -t 0.224448 -s 0 -d 1 -p tcp -e 1040 -c 1 -i 12 -a 1 -x {0.0 3.0 5 ------- null}
h -t 0.224448 -s 0 -d 1 -p tcp -e 1040 -c 1 -i 12 -a 1 -x {0.0 3.0 -1 ------- null}
r -t 0.224992 -s 1 -d 4 -p ack -e 40 -c 1 -i 9 -a 1 -x {5.0 4.0 1 ------- null}
+ -t 0.224992 -s 4 -d 1 -p tcp -e 1000 -c 1 -i 14 -a 1 -x {4.0 5.0 2 ------- null}
- -t 0.224992 -s 4 -d 1 -p tcp -e 1000 -c 1 -i 14 -a 1 -x {4.0 5.0 2 ------- null}
h -t 0.224992 -s 4 -d 1 -p tcp -e 1000 -c 1 -i 14 -a 1 -x {4.0 5.0 -1 ------- null}
+ -t 0.224992 -s 4 -d 1 -p tcp -e 1000 -c 1 -i 15 -a 1 -x {4.0 5.0 3 ------- null}
+ -t 0.224992 -s 4 -d 1 -p tcp -e 1000 -c 1 -i 16 -a 1 -x {4.0 5.0 4 ------- null}
- -t 0.22528 -s 0 -d 1 -p tcp -e 1040 -c 1 -i 13 -a 1 -x {0.0 3.0 6 ------- null}
h -t 0.22528 -s 0 -d 1 -p tcp -e 1040 -c 1 -i 13 -a 1 -x {0.0 3.0 -1 ------- null}
- -t 0.225792 -s 4 -d 1 -p tcp -e 1000 -c 1 -i 15 -a 1 -x {4.0 5.0 3 ------- null}
h -t 0.225792 -s 4 -d 1 -p tcp -e 1000 -c 1 -i 15 -a 1 -x {4.0 5.0 -1 ------- null}
- -t 0.226592 -s 4 -d 1 -p tcp -e 1000 -c 1 -i 16 -a 1 -x {4.0 5.0 4 ------- null}
h -t 0.226592 -s 4 -d 1 -p tcp -e 1000 -c 1 -i 16 -a 1 -x {4.0 5.0 -1 ------- null}
r -t 0.233616 -s 0 -d 1 -p tcp -e 1040 -c 1 -i 10 -a 1 -x {0.0 3.0 3 ------- null}
+ -t 0.233616 -s 1 -d 2 -p tcp -e 1040 -c 1 -i 10 -a 1 -x {0.0 3.0 3 ------- null}
- -t 0.233616 -s 1 -d 2 -p tcp -e 1040 -c 1 -i 10 -a 1 -x {0.0 3.0 3 ------- null}
h -t 0.233616 -s 1 -d 2 -p tcp -e 1040 -c 1 -i 10 -a 1 -x {0.0 3.0 -1 ------- null}
r -t 0.234448 -s 0 -d 1 -p tcp -e 1040 -c 1 -i 11 -a 1 -x {0.0 3.0 4 ------- null}
+ -t 0.234448 -s 1 -d 2 -p tcp -e 1040 -c 1 -i 11 -a 1 -x {0.0 3.0 4 ------- null}
- -t 0.234448 -s 1 -d 2 -p tcp -e 1040 -c 1 -i 11 -a 1 -x {0.0 3.0 4 ------- null}
h -t 0.234448 -s 1 -d 2 -p tcp -e 1040 -c 1 -i 11 -a 1 -x {0.0 3.0 -1 ------- null}
r -t 0.23528 -s 0 -d 1 -p tcp -e 1040 -c 1 -i 12 -a 1 -x {0.0 3.0 5 ------- null}
+ -t 0.23528 -s 1 -d 2 -p tcp -e 1040 -c 1 -i 12 -a 1 -x {0.0 3.0 5 ------- null}
- -t 0.23528 -s 1 -d 2 -p tcp -e 1040 -c 1 -i 12 -a 1 -x {0.0 3.0 5 ------- null}
h -t 0.23528 -s 1 -d 2 -p tcp -e 1040 -c 1 -i 12 -a 1 -x {0.0 3.0 -1 ------- null}
r -t 0.235792 -s 4 -d 1 -p tcp -e 1000 -c 1 -i 14 -a 1 -x {4.0 5.0 2 ------- null}
+ -t 0.235792 -s 1 -d 2 -p tcp -e 1000 -c 1 -i 14 -a 1 -x {4.0 5.0 2 ------- null}
r -t 0.236112 -s 0 -d 1 -p tcp -e 1040 -c 1 -i 13 -a 1 -x {0.0 3.0 6 ------- null}
+ -t 0.236112 -s 1 -d 2 -p tcp -e 1040 -c 1 -i 13 -a 1 -x {0.0 3.0 6 ------- null}
- -t 0.236112 -s 1 -d 2 -p tcp -e 1000 -c 1 -i 14 -a 1 -x {4.0 5.0 2 ------- null}
h -t 0.236112 -s 1 -d 2 -p tcp -e 1000 -c 1 -i 14 -a 1 -x {4.0 5.0 -1 ------- null}
r -t 0.236592 -s 4 -d 1 -p tcp -e 1000 -c 1 -i 15 -a 1 -x {4.0 5.0 3 ------- null}
+ -t 0.236592 -s 1 -d 2 -p tcp -e 1000 -c 1 -i 15 -a 1 -x {4.0 5.0 3 ------- null}
- -t 0.236912 -s 1 -d 2 -p tcp -e 1040 -c 1 -i 13 -a 1 -x {0.0 3.0 6 ------- null}
h -t 0.236912 -s 1 -d 2 -p tcp -e 1040 -c 1 -i 13 -a 1 -x {0.0 3.0 -1 ------- null}
r -t 0.237392 -s 4 -d 1 -p tcp -e 1000 -c 1 -i 16 -a 1 -x {4.0 5.0 4 ------- null}
+ -t 0.237392 -s 1 -d 2 -p tcp -e 1000 -c 1 -i 16 -a 1 -x {4.0 5.0 4 ------- null}
- -t 0.237744 -s 1 -d 2 -p tcp -e 1000 -c 1 -i 15 -a 1 -x {4.0 5.0 3 ------- null}
h -t 0.237744 -s 1 -d 2 -p tcp -e 1000 -c 1 -i 15 -a 1 -x {4.0 5.0 -1 ------- null}
- -t 0.238544 -s 1 -d 2 -p tcp -e 1000 -c 1 -i 16 -a 1 -x {4.0 5.0 4 ------- null}
h -t 0.238544 -s 1 -d 2 -p tcp -e 1000 -c 1 -i 16 -a 1 -x {4.0 5.0 -1 ------- null}
r -t 0.244448 -s 1 -d 2 -p tcp -e 1040 -c 1 -i 10 -a 1 -x {0.0 3.0 3 ------- null}
+ -t 0.244448 -s 2 -d 3 -p tcp -e 1040 -c 1 -i 10 -a 1 -x {0.0 3.0 3 ------- null}
- -t 0.244448 -s 2 -d 3 -p tcp -e 1040 -c 1 -i 10 -a 1 -x {0.0 3.0 3 ------- null}
h -t 0.244448 -s 2 -d 3 -p tcp -e 1040 -c 1 -i 10 -a 1 -x {0.0 3.0 -1 ------- null}
r -t 0.24528 -s 1 -d 2 -p tcp -e 1040 -c 1 -i 11 -a 1 -x {0.0 3.0 4 ------- null}
+ -t 0.24528 -s 2 -d 3 -p tcp -e 1040 -c 1 -i 11 -a 1 -x {0.0 3.0 4 ------- null}
- -t 0.24528 -s 2 -d 3 -p tcp -e 1040 -c 1 -i 11 -a 1 -x {0.0 3.0 4 ------- null}
h -t 0.24528 -s 2 -d 3 -p tcp -e 1040 -c 1 -i 11 -a 1 -x {0.0 3.0 -1 ------- null}
r -t 0.246112 -s 1 -d 2 -p tcp -e 1040 -c 1 -i 12 -a 1 -x {0.0 3.0 5 ------- null}
+ -t 0.246112 -s 2 -d 3 -p tcp -e 1040 -c 1 -i 12 -a 1 -x {0.0 3.0 5 ------- null}
- -t 0.246112 -s 2 -d 3 -p tcp -e 1040 -c 1 -i 12 -a 1 -x {0.0 3.0 5 ------- null}
h -t 0.246112 -s 2 -d 3 -p tcp -e 1040 -c 1 -i 12 -a 1 -x {0.0 3.0 -1 ------- null}
r -t 0.246912 -s 1 -d 2 -p tcp -e 1000 -c 1 -i 14 -a 1 -x {4.0 5.0 2 ------- null}
+ -t 0.246912 -s 2 -d 5 -p tcp -e 1000 -c 1 -i 14 -a 1 -x {4.0 5.0 2 ------- null}
- -t 0.246912 -s 2 -d 5 -p tcp -e 1000 -c 1 -i 14 -a 1 -x {4.0 5.0 2 ------- null}
h -t 0.246912 -s 2 -d 5 -p tcp -e 1000 -c 1 -i 14 -a 1 -x {4.0 5.0 -1 ------- null}
r -t 0.247744 -s 1 -d 2 -p tcp -e 1040 -c 1 -i 13 -a 1 -x {0.0 3.0 6 ------- null}
+ -t 0.247744 -s 2 -d 3 -p tcp -e 1040 -c 1 -i 13 -a 1 -x {0.0 3.0 6 ------- null}
- -t 0.247744 -s 2 -d 3 -p tcp -e 1040 -c 1 -i 13 -a 1 -x {0.0 3.0 6 ------- null}
h -t 0.247744 -s 2 -d 3 -p tcp -e 1040 -c 1 -i 13 -a 1 -x {0.0 3.0 -1 ------- null}
r -t 0.248544 -s 1 -d 2 -p tcp -e 1000 -c 1 -i 15 -a 1 -x {4.0 5.0 3 ------- null}
+ -t 0.248544 -s 2 -d 5 -p tcp -e 1000 -c 1 -i 15 -a 1 -x {4.0 5.0 3 ------- null}
- -t 0.248544 -s 2 -d 5 -p tcp -e 1000 -c 1 -i 15 -a 1 -x {4.0 5.0 3 ------- null}
h -t 0.248544 -s 2 -d 5 -p tcp -e 1000 -c 1 -i 15 -a 1 -x {4.0 5.0 -1 ------- null}
r -t 0.249344 -s 1 -d 2 -p tcp -e 1000 -c 1 -i 16 -a 1 -x {4.0 5.0 4 ------- null}
+ -t 0.249344 -s 2 -d 5 -p tcp -e 1000 -c 1 -i 16 -a 1 -x {4.0 5.0 4 ------- null}
- -t 0.249344 -s 2 -d 5 -p tcp -e 1000 -c 1 -i 16 -a 1 -x {4.0 5.0 4 ------- null}
h -t 0.249344 -s 2 -d 5 -p tcp -e 1000 -c 1 -i 16 -a 1 -x {4.0 5.0 -1 ------- null}
r -t 0.25528 -s 2 -d 3 -p tcp -e 1040 -c 1 -i 10 -a 1 -x {0.0 3.0 3 ------- null}
+ -t 0.25528 -s 3 -d 2 -p ack -e 40 -c 1 -i 17 -a 1 -x {3.0 0.0 3 ------- null}
- -t 0.25528 -s 3 -d 2 -p ack -e 40 -c 1 -i 17 -a 1 -x {3.0 0.0 3 ------- null}
h -t 0.25528 -s 3 -d 2 -p ack -e 40 -c 1 -i 17 -a 1 -x {3.0 0.0 -1 ------- null}
r -t 0.256112 -s 2 -d 3 -p tcp -e 1040 -c 1 -i 11 -a 1 -x {0.0 3.0 4 ------- null}
+ -t 0.256112 -s 3 -d 2 -p ack -e 40 -c 1 -i 18 -a 1 -x {3.0 0.0 4 ------- null}
- -t 0.256112 -s 3 -d 2 -p ack -e 40 -c 1 -i 18 -a 1 -x {3.0 0.0 4 ------- null}
h -t 0.256112 -s 3 -d 2 -p ack -e 40 -c 1 -i 18 -a 1 -x {3.0 0.0 -1 ------- null}
r -t 0.256944 -s 2 -d 3 -p tcp -e 1040 -c 1 -i 12 -a 1 -x {0.0 3.0 5 ------- null}
+ -t 0.256944 -s 3 -d 2 -p ack -e 40 -c 1 -i 19 -a 1 -x {3.0 0.0 5 ------- null}
- -t 0.256944 -s 3 -d 2 -p ack -e 40 -c 1 -i 19 -a 1 -x {3.0 0.0 5 ------- null}
h -t 0.256944 -s 3 -d 2 -p ack -e 40 -c 1 -i 19 -a 1 -x {3.0 0.0 -1 ------- null}
r -t 0.257712 -s 2 -d 5 -p tcp -e 1000 -c 1 -i 14 -a 1 -x {4.0 5.0 2 ------- null}
+ -t 0.257712 -s 5 -d 2 -p ack -e 40 -c 1 -i 20 -a 1 -x {5.0 4.0 2 ------- null}
- -t 0.257712 -s 5 -d 2 -p ack -e 40 -c 1 -i 20 -a 1 -x {5.0 4.0 2 ------- null}
h -t 0.257712 -s 5 -d 2 -p ack -e 40 -c 1 -i 20 -a 1 -x {5.0 4.0 -1 ------- null}
r -t 0.258576 -s 2 -d 3 -p tcp -e 1040 -c 1 -i 13 -a 1 -x {0.0 3.0 6 ------- null}
+ -t 0.258576 -s 3 -d 2 -p ack -e 40 -c 1 -i 21 -a 1 -x {3.0 0.0 6 ------- null}
- -t 0.258576 -s 3 -d 2 -p ack -e 40 -c 1 -i 21 -a 1 -x {3.0 0.0 6 ------- null}
h -t 0.258576 -s 3 -d 2 -p ack -e 40 -c 1 -i 21 -a 1 -x {3.0 0.0 -1 ------- null}
r -t 0.259344 -s 2 -d 5 -p tcp -e 1000 -c 1 -i 15 -a 1 -x {4.0 5.0 3 ------- null}
+ -t 0.259344 -s 5 -d 2 -p ack -e 40 -c 1 -i 22 -a 1 -x {5.0 4.0 3 ------- null}
- -t 0.259344 -s 5 -d 2 -p ack -e 40 -c 1 -i 22 -a 1 -x {5.0 4.0 3 ------- null}
h -t 0.259344 -s 5 -d 2 -p ack -e 40 -c 1 -i 22 -a 1 -x {5.0 4.0 -1 ------- null}
r -t 0.260144 -s 2 -d 5 -p tcp -e 1000 -c 1 -i 16 -a 1 -x {4.0 5.0 4 ------- null}
+ -t 0.260144 -s 5 -d 2 -p ack -e 40 -c 1 -i 23 -a 1 -x {5.0 4.0 4 ------- null}
- -t 0.260144 -s 5 -d 2 -p ack -e 40 -c 1 -i 23 -a 1 -x {5.0 4.0 4 ------- null}
h -t 0.260144 -s 5 -d 2 -p ack -e 40 -c 1 -i 23 -a 1 -x {5.0 4.0 -1 ------- null}
r -t 0.265312 -s 3 -d 2 -p ack -e 40 -c 1 -i 17 -a 1 -x {3.0 0.0 3 ------- null}
+ -t 0.265312 -s 2 -d 1 -p ack -e 40 -c 1 -i 17 -a 1 -x {3.0 0.0 3 ------- null}
- -t 0.265312 -s 2 -d 1 -p ack -e 40 -c 1 -i 17 -a 1 -x {3.0 0.0 3 ------- null}
h -t 0.265312 -s 2 -d 1 -p ack -e 40 -c 1 -i 17 -a 1 -x {3.0 0.0 -1 ------- null}
r -t 0.266144 -s 3 -d 2 -p ack -e 40 -c 1 -i 18 -a 1 -x {3.0 0.0 4 ------- null}
+ -t 0.266144 -s 2 -d 1 -p ack -e 40 -c 1 -i 18 -a 1 -x {3.0 0.0 4 ------- null}
- -t 0.266144 -s 2 -d 1 -p ack -e 40 -c 1 -i 18 -a 1 -x {3.0 0.0 4 ------- null}
h -t 0.266144 -s 2 -d 1 -p ack -e 40 -c 1 -i 18 -a 1 -x {3.0 0.0 -1 ------- null}
r -t 0.266976 -s 3 -d 2 -p ack -e 40 -c 1 -i 19 -a 1 -x {3.0 0.0 5 ------- null}
+ -t 0.266976 -s 2 -d 1 -p ack -e 40 -c 1 -i 19 -a 1 -x {3.0 0.0 5 ------- null}
- -t 0.266976 -s 2 -d 1 -p ack -e 40 -c 1 -i 19 -a 1 -x {3.0 0.0 5 ------- null}
h -t 0.266976 -s 2 -d 1 -p ack -e 40 -c 1 -i 19 -a 1 -x {3.0 0.0 -1 ------- null}
r -t 0.267744 -s 5 -d 2 -p ack -e 40 -c 1 -i 20 -a 1 -x {5.0 4.0 2 ------- null}
+ -t 0.267744 -s 2 -d 1 -p ack -e 40 -c 1 -i 20 -a 1 -x {5.0 4.0 2 ------- null}
- -t 0.267744 -s 2 -d 1 -p ack -e 40 -c 1 -i 20 -a 1 -x {5.0 4.0 2 ------- null}
h -t 0.267744 -s 2 -d 1 -p ack -e 40 -c 1 -i 20 -a 1 -x {5.0 4.0 -1 ------- null}
r -t 0.268608 -s 3 -d 2 -p ack -e 40 -c 1 -i 21 -a 1 -x {3.0 0.0 6 ------- null}
+ -t 0.268608 -s 2 -d 1 -p ack -e 40 -c 1 -i 21 -a 1 -x {3.0 0.0 6 ------- null}
- -t 0.268608 -s 2 -d 1 -p ack -e 40 -c 1 -i 21 -a 1 -x {3.0 0.0 6 ------- null}
h -t 0.268608 -s 2 -d 1 -p ack -e 40 -c 1 -i 21 -a 1 -x {3.0 0.0 -1 ------- null}
r -t 0.269376 -s 5 -d 2 -p ack -e 40 -c 1 -i 22 -a 1 -x {5.0 4.0 3 ------- null}
+ -t 0.269376 -s 2 -d 1 -p ack -e 40 -c 1 -i 22 -a 1 -x {5.0 4.0 3 ------- null}
- -t 0.269376 -s 2 -d 1 -p ack -e 40 -c 1 -i 22 -a 1 -x {5.0 4.0 3 ------- null}
h -t 0.269376 -s 2 -d 1 -p ack -e 40 -c 1 -i 22 -a 1 -x {5.0 4.0 -1 ------- null}
r -t 0.270176 -s 5 -d 2 -p ack -e 40 -c 1 -i 23 -a 1 -x {5.0 4.0 4 ------- null}
+ -t 0.270176 -s 2 -d 1 -p ack -e 40 -c 1 -i 23 -a 1 -x {5.0 4.0 4 ------- null}
- -t 0.270176 -s 2 -d 1 -p ack -e 40 -c 1 -i 23 -a 1 -x {5.0 4.0 4 ------- null}
h -t 0.270176 -s 2 -d 1 -p ack -e 40 -c 1 -i 23 -a 1 -x {5.0 4.0 -1 ------- null}
r -t 0.275344 -s 2 -d 1 -p ack -e 40 -c 1 -i 17 -a 1 -x {3.0 0.0 3 ------- null}
+ -t 0.275344 -s 1 -d 0 -p ack -e 40 -c 1 -i 17 -a 1 -x {3.0 0.0 3 ------- null}
- -t 0.275344 -s 1 -d 0 -p ack -e 40 -c 1 -i 17 -a 1 -x {3.0 0.0 3 ------- null}
h -t 0.275344 -s 1 -d 0 -p ack -e 40 -c 1 -i 17 -a 1 -x {3.0 0.0 -1 ------- null}
r -t 0.276176 -s 2 -d 1 -p ack -e 40 -c 1 -i 18 -a 1 -x {3.0 0.0 4 ------- null}
+ -t 0.276176 -s 1 -d 0 -p ack -e 40 -c 1 -i 18 -a 1 -x {3.0 0.0 4 ------- null}
- -t 0.276176 -s 1 -d 0 -p ack -e 40 -c 1 -i 18 -a 1 -x {3.0 0.0 4 ------- null}
h -t 0.276176 -s 1 -d 0 -p ack -e 40 -c 1 -i 18 -a 1 -x {3.0 0.0 -1 ------- null}
r -t 0.277008 -s 2 -d 1 -p ack -e 40 -c 1 -i 19 -a 1 -x {3.0 0.0 5 ------- null}
+ -t 0.277008 -s 1 -d 0 -p ack -e 40 -c 1 -i 19 -a 1 -x {3.0 0.0 5 ------- null}
- -t 0.277008 -s 1 -d 0 -p ack -e 40 -c 1 -i 19 -a 1 -x {3.0 0.0 5 ------- null}
h -t 0.277008 -s 1 -d 0 -p ack -e 40 -c 1 -i 19 -a 1 -x {3.0 0.0 -1 ------- null}
r -t 0.277776 -s 2 -d 1 -p ack -e 40 -c 1 -i 20 -a 1 -x {5.0 4.0 2 ------- null}
+ -t 0.277776 -s 1 -d 4 -p ack -e 40 -c 1 -i 20 -a 1 -x {5.0 4.0 2 ------- null}
- -t 0.277776 -s 1 -d 4 -p ack -e 40 -c 1 -i 20 -a 1 -x {5.0 4.0 2 ------- null}
h -t 0.277776 -s 1 -d 4 -p ack -e 40 -c 1 -i 20 -a 1 -x {5.0 4.0 -1 ------- null}
r -t 0.27864 -s 2 -d 1 -p ack -e 40 -c 1 -i 21 -a 1 -x {3.0 0.0 6 ------- null}
+ -t 0.27864 -s 1 -d 0 -p ack -e 40 -c 1 -i 21 -a 1 -x {3.0 0.0 6 ------- null}
- -t 0.27864 -s 1 -d 0 -p ack -e 40 -c 1 -i 21 -a 1 -x {3.0 0.0 6 ------- null}
h -t 0.27864 -s 1 -d 0 -p ack -e 40 -c 1 -i 21 -a 1 -x {3.0 0.0 -1 ------- null}
r -t 0.279408 -s 2 -d 1 -p ack -e 40 -c 1 -i 22 -a 1 -x {5.0 4.0 3 ------- null}
+ -t 0.279408 -s 1 -d 4 -p ack -e 40 -c 1 -i 22 -a 1 -x {5.0 4.0 3 ------- null}
- -t 0.279408 -s 1 -d 4 -p ack -e 40 -c 1 -i 22 -a 1 -x {5.0 4.0 3 ------- null}
h -t 0.279408 -s 1 -d 4 -p ack -e 40 -c 1 -i 22 -a 1 -x {5.0 4.0 -1 ------- null}
r -t 0.280208 -s 2 -d 1 -p ack -e 40 -c 1 -i 23 -a 1 -x {5.0 4.0 4 ------- null}
+ -t 0.280208 -s 1 -d 4 -p ack -e 40 -c 1 -i 23 -a 1 -x {5.0 4.0 4 ------- null}
- -t 0.280208 -s 1 -d 4 -p ack -e 40 -c 1 -i 23 -a 1 -x {5.0 4.0 4 ------- null}
h -t 0.280208 -s 1 -d 4 -p ack -e 40 -c 1 -i 23 -a 1 -x {5.0 4.0 -1 ------- null}
r -t 0.285376 -s 1 -d 0 -p ack -e 40 -c 1 -i 17 -a 1 -x {3.0 0.0 3 ------- null}
+ -t 0.285376 -s 0 -d 1 -p tcp -e 1040 -c 1 -i 24 -a 1 -x {0.0 3.0 7 ------- null}
- -t 0.285376 -s 0 -d 1 -p tcp -e 1040 -c 1 -i 24 -a 1 -x {0.0 3.0 7 ------- null}
h -t 0.285376 -s 0 -d 1 -p tcp -e 1040 -c 1 -i 24 -a 1 -x {0.0 3.0 -1 ------- null}
+ -t 0.285376 -s 0 -d 1 -p tcp -e 1040 -c 1 -i 25 -a 1 -x {0.0 3.0 8 ------- null}
r -t 0.286208 -s 1 -d 0 -p ack -e 40 -c 1 -i 18 -a 1 -x {3.0 0.0 4 ------- null}
+ -t 0.286208 -s 0 -d 1 -p tcp -e 1040 -c 1 -i 26 -a 1 -x {0.0 3.0 9 ------- null}
+ -t 0.286208 -s 0 -d 1 -p tcp -e 1040 -c 1 -i 27 -a 1 -x {0.0 3.0 10 ------- null}
- -t 0.286208 -s 0 -d 1 -p tcp -e 1040 -c 1 -i 25 -a 1 -x {0.0 3.0 8 ------- null}
h -t 0.286208 -s 0 -d 1 -p tcp -e 1040 -c 1 -i 25 -a 1 -x {0.0 3.0 -1 ------- null}
r -t 0.28704 -s 1 -d 0 -p ack -e 40 -c 1 -i 19 -a 1 -x {3.0 0.0 5 ------- null}
+ -t 0.28704 -s 0 -d 1 -p tcp -e 1040 -c 1 -i 28 -a 1 -x {0.0 3.0 11 ------- null}
+ -t 0.28704 -s 0 -d 1 -p tcp -e 1040 -c 1 -i 29 -a 1 -x {0.0 3.0 12 ------- null}
- -t 0.28704 -s 0 -d 1 -p tcp -e 1040 -c 1 -i 26 -a 1 -x {0.0 3.0 9 ------- null}
h -t 0.28704 -s 0 -d 1 -p tcp -e 1040 -c 1 -i 26 -a 1 -x {0.0 3.0 -1 ------- null}
r -t 0.287808 -s 1 -d 4 -p ack -e 40 -c 1 -i 20 -a 1 -x {5.0 4.0 2 ------- null}
+ -t 0.287808 -s 4 -d 1 -p tcp -e 1000 -c 1 -i 30 -a 1 -x {4.0 5.0 5 ------- null}
- -t 0.287808 -s 4 -d 1 -p tcp -e 1000 -c 1 -i 30 -a 1 -x {4.0 5.0 5 ------- null}
h -t 0.287808 -s 4 -d 1 -p tcp -e 1000 -c 1 -i 30 -a 1 -x {4.0 5.0 -1 ------- null}
- -t 0.287872 -s 0 -d 1 -p tcp -e 1040 -c 1 -i 27 -a 1 -x {0.0 3.0 10 ------- null}
h -t 0.287872 -s 0 -d 1 -p tcp -e 1040 -c 1 -i 27 -a 1 -x {0.0 3.0 -1 ------- null}
r -t 0.288672 -s 1 -d 0 -p ack -e 40 -c 1 -i 21 -a 1 -x {3.0 0.0 6 ------- null}
+ -t 0.288672 -s 0 -d 1 -p tcp -e 1040 -c 1 -i 31 -a 1 -x {0.0 3.0 13 ------- null}
+ -t 0.288672 -s 0 -d 1 -p tcp -e 1040 -c 1 -i 32 -a 1 -x {0.0 3.0 14 ------- null}
- -t 0.288704 -s 0 -d 1 -p tcp -e 1040 -c 1 -i 28 -a 1 -x {0.0 3.0 11 ------- null}
h -t 0.288704 -s 0 -d 1 -p tcp -e 1040 -c 1 -i 28 -a 1 -x {0.0 3.0 -1 ------- null}
r -t 0.28944 -s 1 -d 4 -p ack -e 40 -c 1 -i 22 -a 1 -x {5.0 4.0 3 ------- null}
+ -t 0.28944 -s 4 -d 1 -p tcp -e 1000 -c 1 -i 33 -a 1 -x {4.0 5.0 6 ------- null}
- -t 0.28944 -s 4 -d 1 -p tcp -e 1000 -c 1 -i 33 -a 1 -x {4.0 5.0 6 ------- null}
h -t 0.28944 -s 4 -d 1 -p tcp -e 1000 -c 1 -i 33 -a 1 -x {4.0 5.0 -1 ------- null}
- -t 0.289536 -s 0 -d 1 -p tcp -e 1040 -c 1 -i 29 -a 1 -x {0.0 3.0 12 ------- null}
h -t 0.289536 -s 0 -d 1 -p tcp -e 1040 -c 1 -i 29 -a 1 -x {0.0 3.0 -1 ------- null}
r -t 0.29024 -s 1 -d 4 -p ack -e 40 -c 1 -i 23 -a 1 -x {5.0 4.0 4 ------- null}
+ -t 0.29024 -s 4 -d 1 -p tcp -e 1000 -c 1 -i 34 -a 1 -x {4.0 5.0 7 ------- null}
- -t 0.29024 -s 4 -d 1 -p tcp -e 1000 -c 1 -i 34 -a 1 -x {4.0 5.0 7 ------- null}
h -t 0.29024 -s 4 -d 1 -p tcp -e 1000 -c 1 -i 34 -a 1 -x {4.0 5.0 -1 ------- null}
- -t 0.290368 -s 0 -d 1 -p tcp -e 1040 -c 1 -i 31 -a 1 -x {0.0 3.0 13 ------- null}
h -t 0.290368 -s 0 -d 1 -p tcp -e 1040 -c 1 -i 31 -a 1 -x {0.0 3.0 -1 ------- null}
- -t 0.2912 -s 0 -d 1 -p tcp -e 1040 -c 1 -i 32 -a 1 -x {0.0 3.0 14 ------- null}
h -t 0.2912 -s 0 -d 1 -p tcp -e 1040 -c 1 -i 32 -a 1 -x {0.0 3.0 -1 ------- null}
r -t 0.296208 -s 0 -d 1 -p tcp -e 1040 -c 1 -i 24 -a 1 -x {0.0 3.0 7 ------- null}
+ -t 0.296208 -s 1 -d 2 -p tcp -e 1040 -c 1 -i 24 -a 1 -x {0.0 3.0 7 ------- null}
- -t 0.296208 -s 1 -d 2 -p tcp -e 1040 -c 1 -i 24 -a 1 -x {0.0 3.0 7 ------- null}
h -t 0.296208 -s 1 -d 2 -p tcp -e 1040 -c 1 -i 24 -a 1 -x {0.0 3.0 -1 ------- null}
r -t 0.29704 -s 0 -d 1 -p tcp -e 1040 -c 1 -i 25 -a 1 -x {0.0 3.0 8 ------- null}
+ -t 0.29704 -s 1 -d 2 -p tcp -e 1040 -c 1 -i 25 -a 1 -x {0.0 3.0 8 ------- null}
- -t 0.29704 -s 1 -d 2 -p tcp -e 1040 -c 1 -i 25 -a 1 -x {0.0 3.0 8 ------- null}
h -t 0.29704 -s 1 -d 2 -p tcp -e 1040 -c 1 -i 25 -a 1 -x {0.0 3.0 -1 ------- null}
r -t 0.297872 -s 0 -d 1 -p tcp -e 1040 -c 1 -i 26 -a 1 -x {0.0 3.0 9 ------- null}
+ -t 0.297872 -s 1 -d 2 -p tcp -e 1040 -c 1 -i 26 -a 1 -x {0.0 3.0 9 ------- null}
- -t 0.297872 -s 1 -d 2 -p tcp -e 1040 -c 1 -i 26 -a 1 -x {0.0 3.0 9 ------- null}
h -t 0.297872 -s 1 -d 2 -p tcp -e 1040 -c 1 -i 26 -a 1 -x {0.0 3.0 -1 ------- null}
r -t 0.298608 -s 4 -d 1 -p tcp -e 1000 -c 1 -i 30 -a 1 -x {4.0 5.0 5 ------- null}
+ -t 0.298608 -s 1 -d 2 -p tcp -e 1000 -c 1 -i 30 -a 1 -x {4.0 5.0 5 ------- null}
r -t 0.298704 -s 0 -d 1 -p tcp -e 1040 -c 1 -i 27 -a 1 -x {0.0 3.0 10 ------- null}
+ -t 0.298704 -s 1 -d 2 -p tcp -e 1040 -c 1 -i 27 -a 1 -x {0.0 3.0 10 ------- null}
- -t 0.298704 -s 1 -d 2 -p tcp -e 1000 -c 1 -i 30 -a 1 -x {4.0 5.0 5 ------- null}
h -t 0.298704 -s 1 -d 2 -p tcp -e 1000 -c 1 -i 30 -a 1 -x {4.0 5.0 -1 ------- null}
- -t 0.299504 -s 1 -d 2 -p tcp -e 1040 -c 1 -i 27 -a 1 -x {0.0 3.0 10 ------- null}
h -t 0.299504 -s 1 -d 2 -p tcp -e 1040 -c 1 -i 27 -a 1 -x {0.0 3.0 -1 ------- null}
r -t 0.299536 -s 0 -d 1 -p tcp -e 1040 -c 1 -i 28 -a 1 -x {0.0 3.0 11 ------- null}
+ -t 0.299536 -s 1 -d 2 -p tcp -e 1040 -c 1 -i 28 -a 1 -x {0.0 3.0 11 ------- null}
r -t 0.30024 -s 4 -d 1 -p tcp -e 1000 -c 1 -i 33 -a 1 -x {4.0 5.0 6 ------- null}
+ -t 0.30024 -s 1 -d 2 -p tcp -e 1000 -c 1 -i 33 -a 1 -x {4.0 5.0 6 ------- null}
- -t 0.300336 -s 1 -d 2 -p tcp -e 1040 -c 1 -i 28 -a 1 -x {0.0 3.0 11 ------- null}
h -t 0.300336 -s 1 -d 2 -p tcp -e 1040 -c 1 -i 28 -a 1 -x {0.0 3.0 -1 ------- null}
r -t 0.300368 -s 0 -d 1 -p tcp -e 1040 -c 1 -i 29 -a 1 -x {0.0 3.0 12 ------- null}
+ -t 0.300368 -s 1 -d 2 -p tcp -e 1040 -c 1 -i 29 -a 1 -x {0.0 3.0 12 ------- null}
r -t 0.30104 -s 4 -d 1 -p tcp -e 1000 -c 1 -i 34 -a 1 -x {4.0 5.0 7 ------- null}
+ -t 0.30104 -s 1 -d 2 -p tcp -e 1000 -c 1 -i 34 -a 1 -x {4.0 5.0 7 ------- null}
- -t 0.301168 -s 1 -d 2 -p tcp -e 1000 -c 1 -i 33 -a 1 -x {4.0 5.0 6 ------- null}
h -t 0.301168 -s 1 -d 2 -p tcp -e 1000 -c 1 -i 33 -a 1 -x {4.0 5.0 -1 ------- null}
r -t 0.3012 -s 0 -d 1 -p tcp -e 1040 -c 1 -i 31 -a 1 -x {0.0 3.0 13 ------- null}
+ -t 0.3012 -s 1 -d 2 -p tcp -e 1040 -c 1 -i 31 -a 1 -x {0.0 3.0 13 ------- null}
- -t 0.301968 -s 1 -d 2 -p tcp -e 1040 -c 1 -i 29 -a 1 -x {0.0 3.0 12 ------- null}
h -t 0.301968 -s 1 -d 2 -p tcp -e 1040 -c 1 -i 29 -a 1 -x {0.0 3.0 -1 ------- null}
r -t 0.302032 -s 0 -d 1 -p tcp -e 1040 -c 1 -i 32 -a 1 -x {0.0 3.0 14 ------- null}