V -t * -v 1.0a5 -a 0
A -t * -n 1 -p 0 -o 0x7fffffff -c 30 -a 1
A -t * -h 1 -m 1073741823 -s 0
n -t * -a 4 -s 4 -S UP -v circle -c black -i black
n -t * -a 0 -s 0 -S UP -v circle -c black -i black
n -t * -a 5 -s 5 -S UP -v circle -c black -i black
n -t * -a 1 -s 1 -S UP -v circle -c black -i black
n -t * -a 2 -s 2 -S UP -v circle -c black -i black
n -t * -a 3 -s 3 -S UP -v circle -c black -i black
l -t * -s 0 -d 1 -S UP -r 10000000 -D 0.01 -c black
l -t * -s 4 -d 1 -S UP -r 10000000 -D 0.01 -c black
l -t * -s 1 -d 2 -S UP -r 10000000 -D 0.01 -c black
l -t * -s 2 -d 3 -S UP -r 10000000 -D 0.01 -c black
l -t * -s 2 -d 5 -S UP -r 10000000 -D 0.01 -c black
+ -t 0.1 -s 0 -d 1 -p tcp -e 40 -c 1 -i 0 -a 1 -x {0.0 3.0 0 ------- null}
- -t 0.1 -s 0 -d 1 -p tcp -e 40 -c 1 -i 0 -a 1 -x {0.0 3.0 0 ------- null}
h -t 0.1 -s 0 -d 1 -p tcp -e 40 -c 1 -i 0 -a 1 -x {0.0 3.0 -1 ------- null}
+ -t 0.1 -s 0 -d 1 -p tcp -e 1000 -c 1 -i 1 -a 1 -x {0.1 3.1 0 ------- null}
+ -t 0.1 -s 0 -d 1 -p tcp -e 40 -c 1 -i 2 -a 1 -x {0.2 3.2 0 ------- null}
+ -t 0.1 -s 0 -d 1 -p tcp -e 40 -c 1 -i 3 -a 1 -x {0.3 3.3 0 ------- null}
- -t 0.100032 -s 0 -d 1 -p tcp -e 1000 -c 1 -i 1 -a 1 -x {0.1 3.1 0 ------- null}
h -t 0.100032 -s 0 -d 1 -p tcp -e 1000 -c 1 -i 1 -a 1 -x {0.1 3.1 -1 ------- null}
- -t 0.100832 -s 0 -d 1 -p tcp -e 40 -c 1 -i 2 -a 1 -x {0.2 3.2 0 ------- null}
h -t 0.100832 -s 0 -d 1 -p tcp -e 40 -c 1 -i 2 -a 1 -x {0.2 3.2 -1 ------- null}
- -t 0.100864 -s 0 -d 1 -p tcp -e 40 -c 1 -i 3 -a 1 -x {0.3 3.3 0 ------- null}
h -t 0.100864 -s 0 -d 1 -p tcp -e 40 -c 1 -i 3 -a 1 -x {0.3 3.3 -1 ------- null}
r -t 0.110032 -s 0 -d 1 -p tcp -e 40 -c 1 -i 0 -a 1 -x {0.0 3.0 0 ------- null}
+ -t 0.110032 -s 1 -d 2 -p tcp -e 40 -c 1 -i 0 -a 1 -x {0.0 3.0 0 ------- null}
- -t 0.110032 -s 1 -d 2 -p tcp -e 40 -c 1 -i 0 -a 1 -x {0.0 3.0 0 ------- null}
h -t 0.110032 -s 1 -d 2 -p tcp -e 40 -c 1 -i 0 -a 1 -x {0.0 3.0 -1 ------- null}
r -t 0.110832 -s 0 -d 1 -p tcp -e 1000 -c 1 -i 1 -a 1 -x {0.1 3.1 0 ------- null}
+ -t 0.110832 -s 1 -d 2 -p tcp -e 1000 -c 1 -i 1 -a 1 -x {0.1 3.1 0 ------- null}
- -t 0.110832 -s 1 -d 2 -p tcp -e 1000 -c 1 -i 1 -a 1 -x {0.1 3.1 0 ------- null}
h -t 0.110832 -s 1 -d 2 -p tcp -e 1000 -c 1 -i 1 -a 1 -x {0.1 3.1 -1 ------- null}
r -t 0.110864 -s 0 -d 1 -p tcp -e 40 -c 1 -i 2 -a 1 -x {0.2 3.2 0 ------- null}
+ -t 0.110864 -s 1 -d 2 -p tcp -e 40 -c 1 -i 2 -a 1 -x {0.2 3.2 0 ------- null}
r -t 0.110896 -s 0 -d 1 -p tcp -e 40 -c 1 -i 3 -a 1 -x {0.3 3.3 0 ------- null}
+ -t 0.110896 -s 1 -d 2 -p tcp -e 40 -c 1 -i 3 -a 1 -x {0.3 3.3 0 ------- null}
- -t 0.111632 -s 1 -d 2 -p tcp -e 40 -c 1 -i 2 -a 1 -x {0.2 3.2 0 ------- null}
h -t 0.111632 -s 1 -d 2 -p tcp -e 40 -c 1 -i 2 -a 1 -x {0.2 3.2 -1 ------- null}
- -t 0.111664 -s 1 -d 2 -p tcp -e 40 -c 1 -i 3 -a 1 -x {0.3 3.3 0 ------- null}
h -t 0.111664 -s 1 -d 2 -p tcp -e 40 -c 1 -i 3 -a 1 -x {0.3 3.3 -1 ------- null}
r -t 0.120064 -s 1 -d 2 -p tcp -e 40 -c 1 -i 0 -a 1 -x {0.0 3.0 0 ------- null}
+ -t 0.120064 -s 2 -d 3 -p tcp -e 40 -c 1 -i 0 -a 1 -x {0.0 3.0 0 ------- null}
- -t 0.120064 -s 2 -d 3 -p tcp -e 40 -c 1 -i 0 -a 1 -x {0.0 3.0 0 ------- null}
h -t 0.120064 -s 2 -d 3 -p tcp -e 40 -c 1 -i 0 -a 1 -x {0.0 3.0 -1 ------- null}
r -t 0.121632 -s 1 -d 2 -p tcp -e 1000 -c 1 -i 1 -a 1 -x {0.1 3.1 0 ------- null}
+ -t 0.121632 -s 2 -d 3 -p tcp -e 1000 -c 1 -i 1 -a 1 -x {0.1 3.1 0 ------- null}
- -t 0.121632 -s 2 -d 3 -p tcp -e 1000 -c 1 -i 1 -a 1 -x {0.1 3.1 0 ------- null}
h -t 0.121632 -s 2 -d 3 -p tcp -e 1000 -c 1 -i 1 -a 1 -x {0.1 3.1 -1 ------- null}
r -t 0.121664 -s 1 -d 2 -p tcp -e 40 -c 1 -i 2 -a 1 -x {0.2 3.2 0 ------- null}
+ -t 0.121664 -s 2 -d 3 -p tcp -e 40 -c 1 -i 2 -a 1 -x {0.2 3.2 0 ------- null}
r -t 0.121696 -s 1 -d 2 -p tcp -e 40 -c 1 -i 3 -a 1 -x {0.3 3.3 0 ------- null}
+ -t 0.121696 -s 2 -d 3 -p tcp -e 40 -c 1 -i 3 -a 1 -x {0.3 3.3 0 ------- null}
- -t 0.122432 -s 2 -d 3 -p tcp -e 40 -c 1 -i 2 -a 1 -x {0.2 3.2 0 ------- null}
h -t 0.122432 -s 2 -d 3 -p tcp -e 40 -c 1 -i 2 -a 1 -x {0.2 3.2 -1 ------- null}
- -t 0.122464 -s 2 -d 3 -p tcp -e 40 -c 1 -i 3 -a 1 -x {0.3 3.3 0 ------- null}
h -t 0.122464 -s 2 -d 3 -p tcp -e 40 -c 1 -i 3 -a 1 -x {0.3 3.3 -1 ------- null}
r -t 0.130096 -s 2 -d 3 -p tcp -e 40 -c 1 -i 0 -a 1 -x {0.0 3.0 0 ------- null}
+ -t 0.130096 -s 3 -d 2 -p ack -e 40 -c 1 -i 4 -a 1 -x {3.0 0.0 0 ------- null}
- -t 0.130096 -s 3 -d 2 -p ack -e 40 -c 1 -i 4 -a 1 -x {3.0 0.0 0 ------- null}
h -t 0.130096 -s 3 -d 2 -p ack -e 40 -c 1 -i 4 -a 1 -x {3.0 0.0 -1 ------- null}
r -t 0.132432 -s 2 -d 3 -p tcp -e 1000 -c 1 -i 1 -a 1 -x {0.1 3.1 0 ------- null}
+ -t 0.132432 -s 3 -d 2 -p ack -e 40 -c 1 -i 5 -a 1 -x {3.1 0.1 0 ------- null}
- -t 0.132432 -s 3 -d 2 -p ack -e 40 -c 1 -i 5 -a 1 -x {3.1 0.1 0 ------- null}
h -t 0.132432 -s 3 -d 2 -p ack -e 40 -c 1 -i 5 -a 1 -x {3.1 0.1 -1 ------- null}
r -t 0.132464 -s 2 -d 3 -p tcp -e 40 -c 1 -i 2 -a 1 -x {0.2 3.2 0 ------- null}
+ -t 0.132464 -s 3 -d 2 -p ack -e 40 -c 1 -i 6 -a 1 -x {3.2 0.2 0 ------- null}
- -t 0.132464 -s 3 -d 2 -p ack -e 40 -c 1 -i 6 -a 1 -x {3.2 0.2 0 ------- null}
h -t 0.132464 -s 3 -d 2 -p ack -e 40 -c 1 -i 6 -a 1 -x {3.2 0.2 -1 ------- null}
r -t 0.132496 -s 2 -d 3 -p tcp -e 40 -c 1 -i 3 -a 1 -x {0.3 3.3 0 ------- null}
+ -t 0.132496 -s 3 -d 2 -p ack -e 40 -c 1 -i 7 -a 1 -x {3.3 0.3 0 ------- null}
- -t 0.132496 -s 3 -d 2 -p ack -e 40 -c 1 -i 7 -a 1 -x {3.3 0.3 0 ------- null}
h -t 0.132496 -s 3 -d 2 -p ack -e 40 -c 1 -i 7 -a 1 -x {3.3 0.3 -1 ------- null}
r -t 0.140128 -s 3 -d 2 -p ack -e 40 -c 1 -i 4 -a 1 -x {3.0 0.0 0 ------- null}
+ -t 0.140128 -s 2 -d 1 -p ack -e 40 -c 1 -i 4 -a 1 -x {3.0 0.0 0 ------- null}
- -t 0.140128 -s 2 -d 1 -p ack -e 40 -c 1 -i 4 -a 1 -x {3.0 0.0 0 ------- null}
h -t 0.140128 -s 2 -d 1 -p ack -e 40 -c 1 -i 4 -a 1 -x {3.0 0.0 -1 ------- null}
r -t 0.142464 -s 3 -d 2 -p ack -e 40 -c 1 -i 5 -a 1 -x {3.1 0.1 0 ------- null}
+ -t 0.142464 -s 2 -d 1 -p ack -e 40 -c 1 -i 5 -a 1 -x {3.1 0.1 0 ------- null}
- -t 0.142464 -s 2 -d 1 -p ack -e 40 -c 1 -i 5 -a 1 -x {3.1 0.1 0 ------- null}
h -t 0.142464 -s 2 -d 1 -p ack -e 40 -c 1 -i 5 -a 1 -x {3.1 0.1 -1 ------- null}
r -t 0.142496 -s 3 -d 2 -p ack -e 40 -c 1 -i 6 -a 1 -x {3.2 0.2 0 ------- null}
+ -t 0.142496 -s 2 -d 1 -p ack -e 40 -c 1 -i 6 -a 1 -x {3.2 0.2 0 ------- null}
- -t 0.142496 -s 2 -d 1 -p ack -e 40 -c 1 -i 6 -a 1 -x {3.2 0.2 0 ------- null}
h -t 0.142496 -s 2 -d 1 -p ack -e 40 -c 1 -i 6 -a 1 -x {3.2 0.2 -1 ------- null}
r -t 0.142528 -s 3 -d 2 -p ack -e 40 -c 1 -i 7 -a 1 -x {3.3 0.3 0 ------- null}
+ -t 0.142528 -s 2 -d 1 -p ack -e 40 -c 1 -i 7 -a 1 -x {3.3 0.3 0 ------- null}
- -t 0.142528 -s 2 -d 1 -p ack -e 40 -c 1 -i 7 -a 1 -x {3.3 0.3 0 ------- null}
h -t 0.142528 -s 2 -d 1 -p ack -e 40 -c 1 -i 7 -a 1 -x {3.3 0.3 -1 ------- null}
r -t 0.15016 -s 2 -d 1 -p ack -e 40 -c 1 -i 4 -a 1 -x {3.0 0.0 0 ------- null}
+ -t 0.15016 -s 1 -d 0 -p ack -e 40 -c 1 -i 4 -a 1 -x {3.0 0.0 0 ------- null}
- -t 0.15016 -s 1 -d 0 -p ack -e 40 -c 1 -i 4 -a 1 -x {3.0 0.0 0 ------- null}
h -t 0.15016 -s 1 -d 0 -p ack -e 40 -c 1 -i 4 -a 1 -x {3.0 0.0 -1 ------- null}
r -t 0.152496 -s 2 -d 1 -p ack -e 40 -c 1 -i 5 -a 1 -x {3.1 0.1 0 ------- null}
+ -t 0.152496 -s 1 -d 0 -p ack -e 40 -c 1 -i 5 -a 1 -x {3.1 0.1 0 ------- null}
- -t 0.152496 -s 1 -d 0 -p ack -e 40 -c 1 -i 5 -a 1 -x {3.1 0.1 0 ------- null}
h -t 0.152496 -s 1 -d 0 -p ack -e 40 -c 1 -i 5 -a 1 -x {3.1 0.1 -1 ------- null}
r -t 0.152528 -s 2 -d 1 -p ack -e 40 -c 1 -i 6 -a 1 -x {3.2 0.2 0 ------- null}
+ -t 0.152528 -s 1 -d 0 -p ack -e 40 -c 1 -i 6 -a 1 -x {3.2 0.2 0 ------- null}
- -t 0.152528 -s 1 -d 0 -p ack -e 40 -c 1 -i 6 -a 1 -x {3.2 0.2 0 ------- null}
h -t 0.152528 -s 1 -d 0 -p ack -e 40 -c 1 -i 6 -a 1 -x {3.2 0.2 -1 ------- null}
r -t 0.15256 -s 2 -d 1 -p ack -e 40 -c 1 -i 7 -a 1 -x {3.3 0.3 0 ------- null}
+ -t 0.15256 -s 1 -d 0 -p ack -e 40 -c 1 -i 7 -a 1 -x {3.3 0.3 0 ------- null}
- -t 0.15256 -s 1 -d 0 -p ack -e 40 -c 1 -i 7 -a 1 -x {3.3 0.3 0 ------- null}
h -t 0.15256 -s 1 -d 0 -p ack -e 40 -c 1 -i 7 -a 1 -x {3.3 0.3 -1 ------- null}
r -t 0.160192 -s 1 -d 0 -p ack -e 40 -c 1 -i 4 -a 1 -x {3.0 0.0 0 ------- null}
+ -t 0.160192 -s 0 -d 1 -p tcp -e 1040 -c 1 -i 8 -a 1 -x {0.0 3.0 1 ------- null}
- -t 0.160192 -s 0 -d 1 -p tcp -e 1040 -c 1 -i 8 -a 1 -x {0.0 3.0 1 ------- null}
h -t 0.160192 -s 0 -d 1 -p tcp -e 1040 -c 1 -i 8 -a 1 -x {0.0 3.0 -1 ------- null}
+ -t 0.160192 -s 0 -d 1 -p tcp -e 1040 -c 1 -i 9 -a 1 -x {0.0 3.0 2 ------- null}
- -t 0.161024 -s 0 -d 1 -p tcp -e 1040 -c 1 -i 9 -a 1 -x {0.0 3.0 2 ------- null}
h -t 0.161024 -s 0 -d 1 -p tcp -e 1040 -c 1 -i 9 -a 1 -x {0.0 3.0 -1 ------- null}
r -t 0.162528 -s 1 -d 0 -p ack -e 40 -c 1 -i 5 -a 1 -x {3.1 0.1 0 ------- null}
+ -t 0.162528 -s 0 -d 1 -p tcp -e 1000 -c 1 -i 10 -a 1 -x {0.1 3.1 1 ------- null}
- -t 0.162528 -s 0 -d 1 -p tcp -e 1000 -c 1 -i 10 -a 1 -x {0.1 3.1 1 ------- null}
h -t 0.162528 -s 0 -d 1 -p tcp -e 1000 -c 1 -i 10 -a 1 -x {0.1 3.1 -1 ------- null}
r -t 0.16256 -s 1 -d 0 -p ack -e 40 -c 1 -i 6 -a 1 -x {3.2 0.2 0 ------- null}
+ -t 0.16256 -s 0 -d 1 -p tcp -e 1040 -c 1 -i 11 -a 1 -x {0.2 3.2 1 ------- null}
+ -t 0.16256 -s 0 -d 1 -p tcp -e 1040 -c 1 -i 12 -a 1 -x {0.2 3.2 2 ------- null}
r -t 0.162592 -s 1 -d 0 -p ack -e 40 -c 1 -i 7 -a 1 -x {3.3 0.3 0 ------- null}
+ -t 0.162592 -s 0 -d 1 -p tcp -e 1040 -c 1 -i 13 -a 1 -x {0.3 3.3 1 ------- null}
+ -t 0.162592 -s 0 -d 1 -p tcp -e 1040 -c 1 -i 14 -a 1 -x {0.3 3.3 2 ------- null}
- -t 0.163328 -s 0 -d 1 -p tcp -e 1040 -c 1 -i 11 -a 1 -x {0.2 3.2 1 ------- null}
h -t 0.163328 -s 0 -d 1 -p tcp -e 1040 -c 1 -i 11 -a 1 -x {0.2 3.2 -1 ------- null}
- -t 0.16416 -s 0 -d 1 -p tcp -e 1040 -c 1 -i 12 -a 1 -x {0.2 3.2 2 ------- null}
h -t 0.16416 -s 0 -d 1 -p tcp -e 1040 -c 1 -i 12 -a 1 -x {0.2 3.2 -1 ------- null}
- -t 0.164992 -s 0 -d 1 -p tcp -e 1040 -c 1 -i 13 -a 1 -x {0.3 3.3 1 ------- null}
h -t 0.164992 -s 0 -d 1 -p tcp -e 1040 -c 1 -i 13 -a 1 -x {0.3 3.3 -1 ------- null}
- -t 0.165824 -s 0 -d 1 -p tcp -e 1040 -c 1 -i 14 -a 1 -x {0.3 3.3 2 ------- null}
h -t 0.165824 -s 0 -d 1 -p tcp -e 1040 -c 1 -i 14 -a 1 -x {0.3 3.3 -1 ------- null}
r -t 0.171024 -s 0 -d 1 -p tcp -e 1040 -c 1 -i 8 -a 1 -x {0.0 3.0 1 ------- null}
+ -t 0.171024 -s 1 -d 2 -p tcp -e 1040 -c 1 -i 8 -a 1 -x {0.0 3.0 1 ------- null}
- -t 0.171024 -s 1 -d 2 -p tcp -e 1040 -c 1 -i 8 -a 1 -x {0.0 3.0 1 ------- null}
h -t 0.171024 -s 1 -d 2 -p tcp -e 1040 -c 1 -i 8 -a 1 -x {0.0 3.0 -1 ------- null}
r -t 0.171856 -s 0 -d 1 -p tcp -e 1040 -c 1 -i 9 -a 1 -x {0.0 3.0 2 ------- null}
+ -t 0.171856 -s 1 -d 2 -p tcp -e 1040 -c 1 -i 9 -a 1 -x {0.0 3.0 2 ------- null}
- -t 0.171856 -s 1 -d 2 -p tcp -e 1040 -c 1 -i 9 -a 1 -x {0.0 3.0 2 ------- null}
h -t 0.171856 -s 1 -d 2 -p tcp -e 1040 -c 1 -i 9 -a 1 -x {0.0 3.0 -1 ------- null}
r -t 0.173328 -s 0 -d 1 -p tcp -e 1000 -c 1 -i 10 -a 1 -x {0.1 3.1 1 ------- null}
+ -t 0.173328 -s 1 -d 2 -p tcp -e 1000 -c 1 -i 10 -a 1 -x {0.1 3.1 1 ------- null}
- -t 0.173328 -s 1 -d 2 -p tcp -e 1000 -c 1 -i 10 -a 1 -x {0.1 3.1 1 ------- null}
h -t 0.173328 -s 1 -d 2 -p tcp -e 1000 -c 1 -i 10 -a 1 -x {0.1 3.1 -1 ------- null}
r -t 0.17416 -s 0 -d 1 -p tcp -e 1040 -c 1 -i 11 -a 1 -x {0.2 3.2 1 ------- null}
+ -t 0.17416 -s 1 -d 2 -p tcp -e 1040 -c 1 -i 11 -a 1 -x {0.2 3.2 1 ------- null}
- -t 0.17416 -s 1 -d 2 -p tcp -e 1040 -c 1 -i 11 -a 1 -x {0.2 3.2 1 ------- null}
h -t 0.17416 -s 1 -d 2 -p tcp -e 1040 -c 1 -i 11 -a 1 -x {0.2 3.2 -1 ------- null}
r -t 0.174992 -s 0 -d 1 -p tcp -e 1040 -c 1 -i 12 -a 1 -x {0.2 3.2 2 ------- null}
+ -t 0.174992 -s 1 -d 2 -p tcp -e 1040 -c 1 -i 12 -a 1 -x {0.2 3.2 2 ------- null}
- -t 0.174992 -s 1 -d 2 -p tcp -e 1040 -c 1 -i 12 -a 1 -x {0.2 3.2 2 ------- null}
h -t 0.174992 -s 1 -d 2 -p tcp -e 1040 -c 1 -i 12 -a 1 -x {0.2 3.2 -1 ------- null}
r -t 0.175824 -s 0 -d 1 -p tcp -e 1040 -c 1 -i 13 -a 1 -x {0.3 3.3 1 ------- null}
+ -t 0.175824 -s 1 -d 2 -p tcp -e 1040 -c 1 -i 13 -a 1 -x {0.3 3.3 1 ------- null}
- -t 0.175824 -s 1 -d 2 -p tcp -e 1040 -c 1 -i 13 -a 1 -x {0.3 3.3 1 ------- null}
h -t 0.175824 -s 1 -d 2 -p tcp -e 1040 -c 1 -i 13 -a 1 -x {0.3 3.3 -1 ------- null}
r -t 0.176656 -s 0 -d 1 -p tcp -e 1040 -c 1 -i 14 -a 1 -x {0.3 3.3 2 ------- null}
+ -t 0.176656 -s 1 -d 2 -p tcp -e 1040 -c 1 -i 14 -a 1 -x {0.3 3.3 2 ------- null}
- -t 0.176656 -s 1 -d 2 -p tcp -e 1040 -c 1 -i 14 -a 1 -x {0.3 3.3 2 ------- null}
h -t 0.176656 -s 1 -d 2 -p tcp -e 1040 -c 1 -i 14 -a 1 -x {0.3 3.3 -1 ------- null}
r -t 0.181856 -s 1 -d 2 -p tcp -e 1040 -c 1 -i 8 -a 1 -x {0.0 3.0 1 ------- null}
+ -t 0.181856 -s 2 -d 3 -p tcp -e 1040 -c 1 -i 8 -a 1 -x {0.0 3.0 1 ------- null}
- -t 0.181856 -s 2 -d 3 -p tcp -e 1040 -c 1 -i 8 -a 1 -x {0.0 3.0 1 ------- null}
h -t 0.181856 -s 2 -d 3 -p tcp -e 1040 -c 1 -i 8 -a 1 -x {0.0 3.0 -1 ------- null}
r -t 0.182688 -s 1 -d 2 -p tcp -e 1040 -c 1 -i 9 -a 1 -x {0.0 3.0 2 ------- null}
+ -t 0.182688 -s 2 -d 3 -p tcp -e 1040 -c 1 -i 9 -a 1 -x {0.0 3.0 2 ------- null}
- -t 0.182688 -s 2 -d 3 -p tcp -e 1040 -c 1 -i 9 -a 1 -x {0.0 3.0 2 ------- null}
h -t 0.182688 -s 2 -d 3 -p tcp -e 1040 -c 1 -i 9 -a 1 -x {0.0 3.0 -1 ------- null}
r -t 0.184128 -s 1 -d 2 -p tcp -e 1000 -c 1 -i 10 -a 1 -x {0.1 3.1 1 ------- null}
+ -t 0.184128 -s 2 -d 3 -p tcp -e 1000 -c 1 -i 10 -a 1 -x {0.1 3.1 1 ------- null}
- -t 0.184128 -s 2 -d 3 -p tcp -e 1000 -c 1 -i 10 -a 1 -x {0.1 3.1 1 ------- null}
h -t 0.184128 -s 2 -d 3 -p tcp -e 1000 -c 1 -i 10 -a 1 -x {0.1 3.1 -1 ------- null}
r -t 0.184992 -s 1 -d 2 -p tcp -e 1040 -c 1 -i 11 -a 1 -x {0.2 3.2 1 ------- null}
+ -t 0.184992 -s 2 -d 3 -p tcp -e 1040 -c 1 -i 11 -a 1 -x {0.2 3.2 1 ------- null}
- -t 0.184992 -s 2 -d 3 -p tcp -e 1040 -c 1 -i 11 -a 1 -x {0.2 3.2 1 ------- null}
h -t 0.184992 -s 2 -d 3 -p tcp -e 1040 -c 1 -i 11 -a 1 -x {0.2 3.2 -1 ------- null}
r -t 0.185824 -s 1 -d 2 -p tcp -e 1040 -c 1 -i 12 -a 1 -x {0.2 3.2 2 ------- null}
+ -t 0.185824 -s 2 -d 3 -p tcp -e 1040 -c 1 -i 12 -a 1 -x {0.2 3.2 2 ------- null}
- -t 0.185824 -s 2 -d 3 -p tcp -e 1040 -c 1 -i 12 -a 1 -x {0.2 3.2 2 ------- null}
h -t 0.185824 -s 2 -d 3 -p tcp -e 1040 -c 1 -i 12 -a 1 -x {0.2 3.2 -1 ------- null}
r -t 0.186656 -s 1 -d 2 -p tcp -e 1040 -c 1 -i 13 -a 1 -x {0.3 3.3 1 ------- null}
+ -t 0.186656 -s 2 -d 3 -p tcp -e 1040 -c 1 -i 13 -a 1 -x {0.3 3.3 1 ------- null}
- -t 0.186656 -s 2 -d 3 -p tcp -e 1040 -c 1 -i 13 -a 1 -x {0.3 3.3 1 ------- null}
h -t 0.186656 -s 2 -d 3 -p tcp -e 1040 -c 1 -i 13 -a 1 -x {0.3 3.3 -1 ------- null}
r -t 0.187488 -s 1 -d 2 -p tcp -e 1040 -c 1 -i 14 -a 1 -x {0.3 3.3 2 ------- null}
+ -t 0.187488 -s 2 -d 3 -p tcp -e 1040 -c 1 -i 14 -a 1 -x {0.3 3.3 2 ------- null}
- -t 0.187488 -s 2 -d 3 -p tcp -e 1040 -c 1 -i 14 -a 1 -x {0.3 3.3 2 ------- null}
h -t 0.187488 -s 2 -d 3 -p tcp -e 1040 -c 1 -i 14 -a 1 -x {0.3 3.3 -1 ------- null}
r -t 0.192688 -s 2 -d 3 -p tcp -e 1040 -c 1 -i 8 -a 1 -x {0.0 3.0 1 ------- null}
+ -t 0.192688 -s 3 -d 2 -p ack -e 40 -c 1 -i 15 -a 1 -x {3.0 0.0 1 ------- null}
- -t 0.192688 -s 3 -d 2 -p ack -e 40 -c 1 -i 15 -a 1 -x {3.0 0.0 1 ------- null}
h -t 0.192688 -s 3 -d 2 -p ack -e 40 -c 1 -i 15 -a 1 -x {3.0 0.0 -1 ------- null}
r -t 0.19352 -s 2 -d 3 -p tcp -e 1040 -c 1 -i 9 -a 1 -x {0.0 3.0 2 ------- null}
+ -t 0.19352 -s 3 -d 2 -p ack -e 40 -c 1 -i 16 -a 1 -x {3.0 0.0 2 ------- null}
- -t 0.19352 -s 3 -d 2 -p ack -e 40 -c 1 -i 16 -a 1 -x {3.0 0.0 2 ------- null}
h -t 0.19352 -s 3 -d 2 -p ack -e 40 -c 1 -i 16 -a 1 -x {3.0 0.0 -1 ------- null}
r -t 0.194928 -s 2 -d 3 -p tcp -e 1000 -c 1 -i 10 -a 1 -x {0.1 3.1 1 ------- null}
+ -t 0.194928 -s 3 -d 2 -p ack -e 40 -c 1 -i 17 -a 1 -x {3.1 0.1 1 ------- null}
- -t 0.194928 -s 3 -d 2 -p ack -e 40 -c 1 -i 17 -a 1 -x {3.1 0.1 1 ------- null}
h -t 0.194928 -s 3 -d 2 -p ack -e 40 -c 1 -i 17 -a 1 -x {3.1 0.1 -1 ------- null}
r -t 0.195824 -s 2 -d 3 -p tcp -e 1040 -c 1 -i 11 -a 1 -x {0.2 3.2 1 ------- null}
+ -t 0.195824 -s 3 -d 2 -p ack -e 40 -c 1 -i 18 -a 1 -x {3.2 0.2 1 ------- null}
- -t 0.195824 -s 3 -d 2 -p ack -e 40 -c 1 -i 18 -a 1 -x {3.2 0.2 1 ------- null}
h -t 0.195824 -s 3 -d 2 -p ack -e 40 -c 1 -i 18 -a 1 -x {3.2 0.2 -1 ------- null}
r -t 0.196656 -s 2 -d 3 -p tcp -e 1040 -c 1 -i 12 -a 1 -x {0.2 3.2 2 ------- null}
+ -t 0.196656 -s 3 -d 2 -p ack -e 40 -c 1 -i 19 -a 1 -x {3.2 0.2 2 ------- null}
- -t 0.196656 -s 3 -d 2 -p ack -e 40 -c 1 -i 19 -a 1 -x {3.2 0.2 2 ------- null}
h -t 0.196656 -s 3 -d 2 -p ack -e 40 -c 1 -i 19 -a 1 -x {3.2 0.2 -1 ------- null}
r -t 0.197488 -s 2 -d 3 -p tcp -e 1040 -c 1 -i 13 -a 1 -x {0.3 3.3 1 ------- null}
+ -t 0.197488 -s 3 -d 2 -p ack -e 40 -c 1 -i 20 -a 1 -x {3.3 0.3 1 ------- null}
- -t 0.197488 -s 3 -d 2 -p ack -e 40 -c 1 -i 20 -a 1 -x {3.3 0.3 1 ------- null}
h -t 0.197488 -s 3 -d 2 -p ack -e 40 -c 1 -i 20 -a 1 -x {3.3 0.3 -1 ------- null}
r -t 0.19832 -s 2 -d 3 -p tcp -e 1040 -c 1 -i 14 -a 1 -x {0.3 3.3 2 ------- null}
+ -t 0.19832 -s 3 -d 2 -p ack -e 40 -c 1 -i 21 -a 1 -x {3.3 0.3 2 ------- null}
- -t 0.19832 -s 3 -d 2 -p ack -e 40 -c 1 -i 21 -a 1 -x {3.3 0.3 2 ------- null}
h -t 0.19832 -s 3 -d 2 -p ack -e 40 -c 1 -i 21 -a 1 -x {3.3 0.3 -1 ------- null}
r -t 0.20272 -s 3 -d 2 -p ack -e 40 -c 1 -i 15 -a 1 -x {3.0 0.0 1 ------- null}
+ -t 0.20272 -s 2 -d 1 -p ack -e 40 -c 1 -i 15 -a 1 -x {3.0 0.0 1 ------- null}
- -t 0.20272 -s 2 -d 1 -p ack -e 40 -c 1 -i 15 -a 1 -x {3.0 0.0 1 ------- null}
h -t 0.20272 -s 2 -d 1 -p ack -e 40 -c 1 -i 15 -a 1 -x {3.0 0.0 -1 ------- null}
r -t 0.203552 -s 3 -d 2 -p ack -e 40 -c 1 -i 16 -a 1 -x {3.0 0.0 2 ------- null}
+ -t 0.203552 -s 2 -d 1 -p ack -e 40 -c 1 -i 16 -a 1 -x {3.0 0.0 2 ------- null}
- -t 0.203552 -s 2 -d 1 -p ack -e 40 -c 1 -i 16 -a 1 -x {3.0 0.0 2 ------- null}
h -t 0.203552 -s 2 -d 1 -p ack -e 40 -c 1 -i 16 -a 1 -x {3.0 0.0 -1 ------- null}
r -t 0.20496 -s 3 -d 2 -p ack -e 40 -c 1 -i 17 -a 1 -x {3.1 0.1 1 ------- null}
+ -t 0.20496 -s 2 -d 1 -p ack -e 40 -c 1 -i 17 -a 1 -x {3.1 0.1 1 ------- null}
- -t 0.20496 -s 2 -d 1 -p ack -e 40 -c 1 -i 17 -a 1 -x {3.1 0.1 1 ------- null}
h -t 0.20496 -s 2 -d 1 -p ack -e 40 -c 1 -i 17 -a 1 -x {3.1 0.1 -1 ------- null}
r -t 0.205856 -s 3 -d 2 -p ack -e 40 -c 1 -i 18 -a 1 -x {3.2 0.2 1 ------- null}
+ -t 0.205856 -s 2 -d 1 -p ack -e 40 -c 1 -i 18 -a 1 -x {3.2 0.2 1 ------- null}
- -t 0.205856 -s 2 -d 1 -p ack -e 40 -c 1 -i 18 -a 1 -x {3.2 0.2 1 ------- null}
h -t 0.205856 -s 2 -d 1 -p ack -e 40 -c 1 -i 18 -a 1 -x {3.2 0.2 -1 ------- null}
r -t 0.206688 -s 3 -d 2 -p ack -e 40 -c 1 -i 19 -a 1 -x {3.2 0.2 2 ------- null}
+ -t 0.206688 -s 2 -d 1 -p ack -e 40 -c 1 -i 19 -a 1 -x {3.2 0.2 2 ------- null}
- -t 0.206688 -s 2 -d 1 -p ack -e 40 -c 1 -i 19 -a 1 -x {3.2 0.2 2 ------- null}
h -t 0.206688 -s 2 -d 1 -p ack -e 40 -c 1 -i 19 -a 1 -x {3.2 0.2 -1 ------- null}
r -t 0.20752 -s 3 -d 2 -p ack -e 40 -c 1 -i 20 -a 1 -x {3.3 0.3 1 ------- null}
+ -t 0.20752 -s 2 -d 1 -p ack -e 40 -c 1 -i 20 -a 1 -x {3.3 0.3 1 ------- null}
- -t 0.20752 -s 2 -d 1 -p ack -e 40 -c 1 -i 20 -a 1 -x {3.3 0.3 1 ------- null}
h -t 0.20752 -s 2 -d 1 -p ack -e 40 -c 1 -i 20 -a 1 -x {3.3 0.3 -1 ------- null}
r -t 0.208352 -s 3 -d 2 -p ack -e 40 -c 1 -i 21 -a 1 -x {3.3 0.3 2 ------- null}
+ -t 0.208352 -s 2 -d 1 -p ack -e 40 -c 1 -i 21 -a 1 -x {3.3 0.3 2 ------- null}
- -t 0.208352 -s 2 -d 1 -p ack -e 40 -c 1 -i 21 -a 1 -x {3.3 0.3 2 ------- null}
h -t 0.208352 -s 2 -d 1 -p ack -e 40 -c 1 -i 21 -a 1 -x {3.3 0.3 -1 ------- null}
r -t 0.212752 -s 2 -d 1 -p ack -e 40 -c 1 -i 15 -a 1 -x {3.0 0.0 1 ------- null}
+ -t 0.212752 -s 1 -d 0 -p ack -e 40 -c 1 -i 15 -a 1 -x {3.0 0.0 1 ------- null}
- -t 0.212752 -s 1 -d 0 -p ack -e 40 -c 1 -i 15 -a 1 -x {3.0 0.0 1 ------- null}
h -t 0.212752 -s 1 -d 0 -p ack -e 40 -c 1 -i 15 -a 1 -x {3.0 0.0 -1 ------- null}
r -t 0.213584 -s 2 -d 1 -p ack -e 40 -c 1 -i 16 -a 1 -x {3.0 0.0 2 ------- null}
+ -t 0.213584 -s 1 -d 0 -p ack -e 40 -c 1 -i 16 -a 1 -x {3.0 0.0 2 ------- null}
- -t 0.213584 -s 1 -d 0 -p ack -e 40 -c 1 -i 16 -a 1 -x {3.0 0.0 2 ------- null}
h -t 0.213584 -s 1 -d 0 -p ack -e 40 -c 1 -i 16 -a 1 -x {3.0 0.0 -1 ------- null}
r -t 0.214992 -s 2 -d 1 -p ack -e 40 -c 1 -i 17 -a 1 -x {3.1 0.1 1 ------- null}
+ -t 0.214992 -s 1 -d 0 -p ack -e 40 -c 1 -i 17 -a 1 -x {3.1 0.1 1 ------- null}
- -t 0.214992 -s 1 -d 0 -p ack -e 40 -c 1 -i 17 -a 1 -x {3.1 0.1 1 ------- null}
h -t 0.214992 -s 1 -d 0 -p ack -e 40 -c 1 -i 17 -a 1 -x {3.1 0.1 -1 ------- null}
r -t 0.215888 -s 2 -d 1 -p ack -e 40 -c 1 -i 18 -a 1 -x {3.2 0.2 1 ------- null}
+ -t 0.215888 -s 1 -d 0 -p ack -e 40 -c 1 -i 18 -a 1 -x {3.2 0.2 1 ------- null}
- -t 0.215888 -s 1 -d 0 -p ack -e 40 -c 1 -i 18 -a 1 -x {3.2 0.2 1 ------- null}
h -t 0.215888 -s 1 -d 0 -p ack -e 40 -c 1 -i 18 -a 1 -x {3.2 0.2 -1 ------- null}
r -t 0.21672 -s 2 -d 1 -p ack -e 40 -c 1 -i 19 -a 1 -x {3.2 0.2 2 ------- null}
+ -t 0.21672 -s 1 -d 0 -p ack -e 40 -c 1 -i 19 -a 1 -x {3.2 0.2 2 ------- null}
- -t 0.21672 -s 1 -d 0 -p ack -e 40 -c 1 -i 19 -a 1 -x {3.2 0.2 2 ------- null}
h -t 0.21672 -s 1 -d 0 -p ack -e 40 -c 1 -i 19 -a 1 -x {3.2 0.2 -1 ------- null}
r -t 0.217552 -s 2 -d 1 -p ack -e 40 -c 1 -i 20 -a 1 -x {3.3 0.3 1 ------- null}
+ -t 0.217552 -s 1 -d 0 -p ack -e 40 -c 1 -i 20 -a 1 -x {3.3 0.3 1 ------- null}
- -t 0.217552 -s 1 -d 0 -p ack -e 40 -c 1 -i 20 -a 1 -x {3.3 0.3 1 ------- null}
h -t 0.217552 -s 1 -d 0 -p ack -e 40 -c 1 -i 20 -a 1 -x {3.3 0.3 -1 ------- null}
r -t 0.218384 -s 2 -d 1 -p ack -e 40 -c 1 -i 21 -a 1 -x {3.3 0.3 2 ------- null}
+ -t 0.218384 -s 1 -d 0 -p ack -e 40 -c 1 -i 21 -a 1 -x {3.3 0.3 2 ------- null}
- -t 0.218384 -s 1 -d 0 -p ack -e 40 -c 1 -i 21 -a 1 -x {3.3 0.3 2 ------- null}
h -t 0.218384 -s 1 -d 0 -p ack -e 40 -c 1 -i 21 -a 1 -x {3.3 0.3 -1 ------- null}
r -t 0.222784 -s 1 -d 0 -p ack -e 40 -c 1 -i 15 -a 1 -x {3.0 0.0 1 ------- null}
+ -t 0.222784 -s 0 -d 1 -p tcp -e 1040 -c 1 -i 22 -a 1 -x {0.0 3.0 3 ------- null}
- -t 0.222784 -s 0 -d 1 -p tcp -e 1040 -c 1 -i 22 -a 1 -x {0.0 3.0 3 ------- null}
h -t 0.222784 -s 0 -d 1 -p tcp -e 1040 -c 1 -i 22 -a 1 -x {0.0 3.0 -1 ------- null}
+ -t 0.222784 -s 0 -d 1 -p tcp -e 1040 -c 1 -i 23 -a 1 -x {0.0 3.0 4 ------- null}
r -t 0.223616 -s 1 -d 0 -p ack -e 40 -c 1 -i 16 -a 1 -x {3.0 0.0 2 ------- null}
+ -t 0.223616 -s 0 -d 1 -p tcp -e 1040 -c 1 -i 24 -a 1 -x {0.0 3.0 5 ------- null}
+ -t 0.223616 -s 0 -d 1 -p tcp -e 1040 -c 1 -i 25 -a 1 -x {0.0 3.0 6 ------- null}
- -t 0.223616 -s 0 -d 1 -p tcp -e 1040 -c 1 -i 23 -a 1 -x {0.0 3.0 4 ------- null}
h -t 0.223616 -s 0 -d 1 -p tcp -e 1040 -c 1 -i 23 -a 1 -x {0.0 3.0 -1 ------- null}
- -t 0.224448 -s 0 -d 1 -p tcp -e 1040 -c 1 -i 24 -a 1 -x {0.0 3.0 5 ------- null}
h -t 0.224448 -s 0 -d 1 -p tcp -e 1040 -c 1 -i 24 -a 1 -x {0.0 3.0 -1 ------- null}
r -t 0.225024 -s 1 -d 0 -p ack -e 40 -c 1 -i 17 -a 1 -x {3.1 0.1 1 ------- null}
+ -t 0.225024 -s 0 -d 1 -p tcp -e 1000 -c 1 -i 26 -a 1 -x {0.1 3.1 2 ------- null}
+ -t 0.225024 -s 0 -d 1 -p tcp -e 1000 -c 1 -i 27 -a 1 -x {0.1 3.1 3 ------- null}
+ -t 0.225024 -s 0 -d 1 -p tcp -e 1000 -c 1 -i 28 -a 1 -x {0.1 3.1 4 ------- null}
- -t 0.22528 -s 0 -d 1 -p tcp -e 1040 -c 1 -i 25 -a 1 -x {0.0 3.0 6 ------- null}
h -t 0.22528 -s 0 -d 1 -p tcp -e 1040 -c 1 -i 25 -a 1 -x {0.0 3.0 -1 ------- null}
r -t 0.22592 -s 1 -d 0 -p ack -e 40 -c 1 -i 18 -a 1 -x {3.2 0.2 1 ------- null}
+ -t 0.22592 -s 0 -d 1 -p tcp -e 1040 -c 1 -i 29 -a 1 -x {0.2 3.2 3 ------- null}
+ -t 0.22592 -s 0 -d 1 -p tcp -e 1040 -c 1 -i 30 -a 1 -x {0.2 3.2 4 ------- null}
- -t 0.226112 -s 0 -d 1 -p tcp -e 1000 -c 1 -i 26 -a 1 -x {0.1 3.1 2 ------- null}
h -t 0.226112 -s 0 -d 1 -p tcp -e 1000 -c 1 -i 26 -a 1 -x {0.1 3.1 -1 ------- null}
r -t 0.226752 -s 1 -d 0 -p ack -e 40 -c 1 -i 19 -a 1 -x {3.2 0.2 2 ------- null}
+ -t 0.226752 -s 0 -d 1 -p tcp -e 1040 -c 1 -i 31 -a 1 -x {0.2 3.2 5 ------- null}
+ -t 0.226752 -s 0 -d 1 -p tcp -e 1040 -c 1 -i 32 -a 1 -x {0.2 3.2 6 ------- null}
- -t 0.226912 -s 0 -d 1 -p tcp -e 1000 -c 1 -i 27 -a 1 -x {0.1 3.1 3 ------- null}
h -t 0.226912 -s 0 -d 1 -p tcp -e 1000 -c 1 -i 27 -a 1 -x {0.1 3.1 -1 ------- null}
r -t 0.227584 -s 1 -d 0 -p ack -e 40 -c 1 -i 20 -a 1 -x {3.3 0.3 1 ------- null}
+ -t 0.227584 -s 0 -d 1 -p tcp -e 1040 -c 1 -i 33 -a 1 -x {0.3 3.3 3 ------- null}
+ -t 0.227584 -s 0 -d 1 -p tcp -e 1040 -c 1 -i 34 -a 1 -x {0.3 3.3 4 ------- null}
- -t 0.227712 -s 0 -d 1 -p tcp -e 1000 -c 1 -i 28 -a 1 -x {0.1 3.1 4 ------- null}
h -t 0.227712 -s 0 -d 1 -p tcp -e 1000 -c 1 -i 28 -a 1 -x {0.1 3.1 -1 ------- null}
r -t 0.228416 -s 1 -d 0 -p ack -e 40 -c 1 -i 21 -a 1 -x {3.3 0.3 2 ------- null}
+ -t 0.228416 -s 0 -d 1 -p tcp -e 1040 -c 1 -i 35 -a 1 -x {0.3 3.3 5 ------- null}
+ -t 0.228416 -s 0 -d 1 -p tcp -e 1040 -c 1 -i 36 -a 1 -x {0.3 3.3 6 ------- null}
- -t 0.228512 -s 0 -d 1 -p tcp -e 1040 -c 1 -i 29 -a 1 -x {0.2 3.2 3 ------- null}
h -t 0.228512 -s 0 -d 1 -p tcp -e 1040 -c 1 -i 29 -a 1 -x {0.2 3.2 -1 ------- null}
- -t 0.229344 -s 0 -d 1 -p tcp -e 1040 -c 1 -i 30 -a 1 -x {0.2 3.2 4 ------- null}
h -t 0.229344 -s 0 -d 1 -p tcp -e 1040 -c 1 -i 30 -a 1 -x {0.2 3.2 -1 ------- null}
- -t 0.230176 -s 0 -d 1 -p tcp -e 1040 -c 1 -i 31 -a 1 -x {0.2 3.2 5 ------- null}
h -t 0.230176 -s 0 -d 1 -p tcp -e 1040 -c 1 -i 31 -a 1 -x {0.2 3.2 -1 ------- null}
- -t 0.231008 -s 0 -d 1 -p tcp -e 1040 -c 1 -i 32 -a 1 -x {0.2 3.2 6 ------- null}
h -t 0.231008 -s 0 -d 1 -p tcp -e 1040 -c 1 -i 32 -a 1 -x {0.2 3.2 -1 ------- null}
- -t 0.23184 -s 0 -d 1 -p tcp -e 1040 -c 1 -i 33 -a 1 -x {0.3 3.3 3 ------- null}
h -t 0.23184 -s 0 -d 1 -p tcp -e 1040 -c 1 -i 33 -a 1 -x {0.3 3.3 -1 ------- null}
- -t 0.232672 -s 0 -d 1 -p tcp -e 1040 -c 1 -i 34 -a 1 -x {0.3 3.3 4 ------- null}
h -t 0.232672 -s 0 -d 1 -p tcp -e 1040 -c 1 -i 34 -a 1 -x {0.3 3.3 -1 ------- null}
- -t 0.233504 -s 0 -d 1 -p tcp -e 1040 -c 1 -i 35 -a 1 -x {0.3 3.3 5 ------- null}
h -t 0.233504 -s 0 -d 1 -p tcp -e 1040 -c 1 -i 35 -a 1 -x {0.3 3.3 -1 ------- null}
r -t 0.233616 -s 0 -d 1 -p tcp -e 1040 -c 1 -i 22 -a 1 -x {0.0 3.0 3 ------- null}
+ -t 0.233616 -s 1 -d 2 -p tcp -e 1040 -c 1 -i 22 -a 1 -x {0.0 3.0 3 ------- null}
- -t 0.233616 -s 1 -d 2 -p tcp -e 1040 -c 1 -i 22 -a 1 -x {0.0 3.0 3 ------- null}
h -t 0.233616 -s 1 -d 2 -p tcp -e 1040 -c 1 -i 22 -a 1 -x {0.0 3.0 -1 ------- null}
- -t 0.234336 -s 0 -d 1 -p tcp -e 1040 -c 1 -i 36 -a 1 -x {0.3 3.3 6 ------- null}
h -t 0.234336 -s 0 -d 1 -p tcp -e 1040 -c 1 -i 36 -a 1 -x {0.3 3.3 -1 ------- null}
r -t 0.234448 -s 0 -d 1 -p tcp -e 1040 -c 1 -i 23 -a 1 -x {0.0 3.0 4 ------- null}
+ -t 0.234448 -s 1 -d 2 -p tcp -e 1040 -c 1 -i 23 -a 1 -x {0.0 3.0 4 ------- null}
- -t 0.234448 -s 1 -d 2 -p tcp -e 1040 -c 1 -i 23 -a 1 -x {0.0 3.0 4 ------- null}
h -t 0.234448 -s 1 -d 2 -p tcp -e 1040 -c 1 -i 23 -a 1 -x {0.0 3.0 -1 ------- null}
r -t 0.23528 -s 0 -d 1 -p tcp -e 1040 -c 1 -i 24 -a 1 -x {0.0 3.0 5 ------- null}
+ -t 0.23528 -s 1 -d 2 -p tcp -e 1040 -c 1 -i 24 -a 1 -x {0.0 3.0 5 ------- null}
- -t 0.23528 -s 1 -d 2 -p tcp -e 1040 -c 1 -i 24 -a 1 -x {0.0 3.0 5 ------- null}
h -t 0.23528 -s 1 -d 2 -p tcp -e 1040 -c 1 -i 24 -a 1 -x {0.0 3.0 -1 ------- null}
r -t 0.236112 -s 0 -d 1 -p tcp -e 1040 -c 1 -i 25 -a 1 -x {0.0 3.0 6 ------- null}
+ -t 0.236112 -s 1 -d 2 -p tcp -e 1040 -c 1 -i 25 -a 1 -x {0.0 3.0 6 ------- null}
- -t 0.236112 -s 1 -d 2 -p tcp -e 1040 -c 1 -i 25 -a 1 -x {0.0 3.0 6 ------- null}
h -t 0.236112 -s 1 -d 2 -p tcp -e 1040 -c 1 -i 25 -a 1 -x {0.0 3.0 -1 ------- null}
r -t 0.236912 -s 0 -d 1 -p tcp -e 1000 -c 1 -i 26 -a 1 -x {0.1 3.1 2 ------- null}
+ -t 0.236912 -s 1 -d 2 -p tcp -e 1000 -c 1 -i 26 -a 1 -x {0.1 3.1 2 ------- null}
- -t 0.236944 -s 1 -d 2 -p tcp -e 1000 -c 1 -i 26 -a 1 -x {0.1 3.1 2 ------- null}
h -t 0.236944 -s 1 -d 2 -p tcp -e 1000 -c 1 -i 26 -a 1 -x {0.1 3.1 -1 ------- null}
r -t 0.237712 -s 0 -d 1 -p tcp -e 1000 -c 1 -i 27 -a 1 -x {0.1 3.1 3 ------- null}
+ -t 0.237712 -s 1 -d 2 -p tcp -e 1000 -c 1 -i 27 -a 1 -x {0.1 3.1 3 ------- null}
- -t 0.237744 -s 1 -d 2 -p tcp -e 1000 -c 1 -i 27 -a 1 -x {0.1 3.1 3 ------- null}
h -t 0.237744 -s 1 -d 2 -p tcp -e 1000 -c 1 -i 27 -a 1 -x {0.1 3.1 -1 ------- null}
r -t 0.238512 -s 0 -d 1 -p tcp -e 1000 -c 1 -i 28 -a 1 -x {0.1 3.1 4 ------- null}
+ -t 0.238512 -s 1 -d 2 -p tcp -e 1000 -c 1 -i 28 -a 1 -x {0.1 3.1 4 ------- null}
- -t 0.238544 -s 1 -d 2 -p tcp -e 1000 -c 1 -i 28 -a 1 -x {0.1 3.1 4 ------- null}
h -t 0.238544 -s 1 -d 2 -p tcp -e 1000 -c 1 -i 28 -a 1 -x {0.1 3.1 -1 ------- null}
r -t 0.239344 -s 0 -d 1 -p tcp -e 1040 -c 1 -i 29 -a 1 -x {0.2 3.2 3 ------- null}
+ -t 0.239344 -s 1 -d 2 -p tcp -e 1040 -c 1 -i 29 -a 1 -x {0.2 3.2 3 ------- null}
- -t 0.239344 -s 1 -d 2 -p tcp -e 1040 -c 1 -i 29 -a 1 -x {0.2 3.2 3 ------- null}
h -t 0.239344 -s 1 -d 2 -p tcp -e 1040 -c 1 -i 29 -a 1 -x {0.2 3.2 -1 ------- null}
r -t 0.240176 -s 0 -d 1 -p tcp -e 1040 -c 1 -i 30 -a 1 -x {0.2 3.2 4 ------- null}
+ -t 0.240176 -s 1 -d 2 -p tcp -e 1040 -c 1 -i 30 -a 1 -x {0.2 3.2 4 ------- null}
- -t 0.240176 -s 1 -d 2 -p tcp -e 1040 -c 1 -i 30 -a 1 -x {0.2 3.2 4 ------- null}
h -t 0.240176 -s 1 -d 2 -p tcp -e 1040 -c 1 -i 30 -a 1 -x {0.2 3.2 -1 ------- null}
r -t 0.241008 -s 0 -d 1 -p tcp -e 1040 -c 1 -i 31 -a 1 -x {0.2 3.2 5 ------- null}
+ -t 0.241008 -s 1 -d 2 -p tcp -e 1040 -c 1 -i 31 -a 1 -x {0.2 3.2 5 ------- null}
- -t 0.241008 -s 1 -d 2 -p tcp -e 1040 -c 1 -i 31 -a 1 -x {0.2 3.2 5 ------- null}
h -t 0.241008 -s 1 -d 2 -p tcp -e 1040 -c 1 -i 31 -a 1 -x {0.2 3.2 -1 ------- null}
r -t 0.24184 -s 0 -d 1 -p tcp -e 1040 -c 1 -i 32 -a 1 -x {0.2 3.2 6 ------- null}
+ -t 0.24184 -s 1 -d 2 -p tcp -e 1040 -c 1 -i 32 -a 1 -x {0.2 3.2 6 ------- null}
- -t 0.24184 -s 1 -d 2 -p tcp -e 1040 -c 1 -i 32 -a 1 -x {0.2 3.2 6 ------- null}
h -t 0.24184 -s 1 -d 2 -p tcp -e 1040 -c 1 -i 32 -a 1 -x {0.2 3.2 -1 ------- null}
r -t 0.242672 -s 0 -d 1 -p tcp -e 1040 -c 1 -i 33 -a 1 -x {0.3 3.3 3 ------- null}
+ -t 0.242672 -s 1 -d 2 -p tcp -e 1040 -c 1 -i 33 -a 1 -x {0.3 3.3 3 ------- null}
- -t 0.242672 -s 1 -d 2 -p tcp -e 1040 -c 1 -i 33 -a 1 -x {0.3 3.3 3 ------- null}
h -t 0.242672 -s 1 -d 2 -p tcp -e 1040 -c 1 -i 33 -a 1 -x {0.3 3.3 -1 ------- null}
r -t 0.243504 -s 0 -d 1 -p tcp -e 1040 -c 1 -i 34 -a 1 -x {0.3 3.3 4 ------- null}