V -t * -v 1.0a5 -a 0
A -t * -n 1 -p 0 -o 0x7fffffff -c 30 -a 1
A -t * -h 1 -m 1073741823 -s 0
c -t * -i 1 -n Blue
c -t * -i 2 -n Red
n -t * -a 4 -s 4 -S UP -v circle -c black -i black
n -t * -a 0 -s 0 -S UP -v circle -c black -i black
n -t * -a 5 -s 5 -S UP -v circle -c black -i black
n -t * -a 1 -s 1 -S UP -v circle -c black -i black
n -t * -a 2 -s 2 -S UP -v circle -c black -i black
n -t * -a 3 -s 3 -S UP -v circle -c black -i black
l -t * -s 0 -d 1 -S UP -r 2000000 -D 0.01 -c black -o right-down
l -t * -s 4 -d 1 -S UP -r 2000000 -D 0.01 -c black -o right-up
l -t * -s 1 -d 2 -S UP -r 2000000 -D 0.01 -c black -o right
l -t * -s 2 -d 3 -S UP -r 2000000 -D 0.01 -c black -o right-up
l -t * -s 2 -d 5 -S UP -r 2000000 -D 0.01 -c black -o right-down
q -t * -s 2 -d 1 -a 0.5
q -t * -s 1 -d 2 -a 0.5
+ -t 0.1 -s 0 -d 1 -p tcp -e 1000 -c 1 -i 0 -a 1 -x {0.0 3.0 0 ------- null}
- -t 0.1 -s 0 -d 1 -p tcp -e 1000 -c 1 -i 0 -a 1 -x {0.0 3.0 0 ------- null}
h -t 0.1 -s 0 -d 1 -p tcp -e 1000 -c 1 -i 0 -a 1 -x {0.0 3.0 -1 ------- null}
r -t 0.114 -s 0 -d 1 -p tcp -e 1000 -c 1 -i 0 -a 1 -x {0.0 3.0 0 ------- null}
+ -t 0.114 -s 1 -d 2 -p tcp -e 1000 -c 1 -i 0 -a 1 -x {0.0 3.0 0 ------- null}
- -t 0.114 -s 1 -d 2 -p tcp -e 1000 -c 1 -i 0 -a 1 -x {0.0 3.0 0 ------- null}
h -t 0.114 -s 1 -d 2 -p tcp -e 1000 -c 1 -i 0 -a 1 -x {0.0 3.0 -1 ------- null}
r -t 0.128 -s 1 -d 2 -p tcp -e 1000 -c 1 -i 0 -a 1 -x {0.0 3.0 0 ------- null}
+ -t 0.128 -s 2 -d 3 -p tcp -e 1000 -c 1 -i 0 -a 1 -x {0.0 3.0 0 ------- null}
- -t 0.128 -s 2 -d 3 -p tcp -e 1000 -c 1 -i 0 -a 1 -x {0.0 3.0 0 ------- null}
h -t 0.128 -s 2 -d 3 -p tcp -e 1000 -c 1 -i 0 -a 1 -x {0.0 3.0 -1 ------- null}
r -t 0.142 -s 2 -d 3 -p tcp -e 1000 -c 1 -i 0 -a 1 -x {0.0 3.0 0 ------- null}
+ -t 0.142 -s 3 -d 2 -p ack -e 40 -c 1 -i 1 -a 1 -x {3.0 0.0 0 ------- null}
- -t 0.142 -s 3 -d 2 -p ack -e 40 -c 1 -i 1 -a 1 -x {3.0 0.0 0 ------- null}
h -t 0.142 -s 3 -d 2 -p ack -e 40 -c 1 -i 1 -a 1 -x {3.0 0.0 -1 ------- null}
r -t 0.15216 -s 3 -d 2 -p ack -e 40 -c 1 -i 1 -a 1 -x {3.0 0.0 0 ------- null}
+ -t 0.15216 -s 2 -d 1 -p ack -e 40 -c 1 -i 1 -a 1 -x {3.0 0.0 0 ------- null}
- -t 0.15216 -s 2 -d 1 -p ack -e 40 -c 1 -i 1 -a 1 -x {3.0 0.0 0 ------- null}
h -t 0.15216 -s 2 -d 1 -p ack -e 40 -c 1 -i 1 -a 1 -x {3.0 0.0 -1 ------- null}
r -t 0.16232 -s 2 -d 1 -p ack -e 40 -c 1 -i 1 -a 1 -x {3.0 0.0 0 ------- null}
+ -t 0.16232 -s 1 -d 0 -p ack -e 40 -c 1 -i 1 -a 1 -x {3.0 0.0 0 ------- null}
- -t 0.16232 -s 1 -d 0 -p ack -e 40 -c 1 -i 1 -a 1 -x {3.0 0.0 0 ------- null}
h -t 0.16232 -s 1 -d 0 -p ack -e 40 -c 1 -i 1 -a 1 -x {3.0 0.0 -1 ------- null}
r -t 0.17248 -s 1 -d 0 -p ack -e 40 -c 1 -i 1 -a 1 -x {3.0 0.0 0 ------- null}
+ -t 0.17248 -s 0 -d 1 -p tcp -e 1000 -c 1 -i 2 -a 1 -x {0.0 3.0 1 ------- null}
- -t 0.17248 -s 0 -d 1 -p tcp -e 1000 -c 1 -i 2 -a 1 -x {0.0 3.0 1 ------- null}
h -t 0.17248 -s 0 -d 1 -p tcp -e 1000 -c 1 -i 2 -a 1 -x {0.0 3.0 -1 ------- null}
r -t 0.18648 -s 0 -d 1 -p tcp -e 1000 -c 1 -i 2 -a 1 -x {0.0 3.0 1 ------- null}
+ -t 0.18648 -s 1 -d 2 -p tcp -e 1000 -c 1 -i 2 -a 1 -x {0.0 3.0 1 ------- null}
- -t 0.18648 -s 1 -d 2 -p tcp -e 1000 -c 1 -i 2 -a 1 -x {0.0 3.0 1 ------- null}
h -t 0.18648 -s 1 -d 2 -p tcp -e 1000 -c 1 -i 2 -a 1 -x {0.0 3.0 -1 ------- null}
r -t 0.20048 -s 1 -d 2 -p tcp -e 1000 -c 1 -i 2 -a 1 -x {0.0 3.0 1 ------- null}
+ -t 0.20048 -s 2 -d 3 -p tcp -e 1000 -c 1 -i 2 -a 1 -x {0.0 3.0 1 ------- null}
- -t 0.20048 -s 2 -d 3 -p tcp -e 1000 -c 1 -i 2 -a 1 -x {0.0 3.0 1 ------- null}
h -t 0.20048 -s 2 -d 3 -p tcp -e 1000 -c 1 -i 2 -a 1 -x {0.0 3.0 -1 ------- null}
r -t 0.21448 -s 2 -d 3 -p tcp -e 1000 -c 1 -i 2 -a 1 -x {0.0 3.0 1 ------- null}
+ -t 0.21448 -s 3 -d 2 -p ack -e 40 -c 1 -i 3 -a 1 -x {3.0 0.0 1 ------- null}
- -t 0.21448 -s 3 -d 2 -p ack -e 40 -c 1 -i 3 -a 1 -x {3.0 0.0 1 ------- null}
h -t 0.21448 -s 3 -d 2 -p ack -e 40 -c 1 -i 3 -a 1 -x {3.0 0.0 -1 ------- null}
r -t 0.22464 -s 3 -d 2 -p ack -e 40 -c 1 -i 3 -a 1 -x {3.0 0.0 1 ------- null}
+ -t 0.22464 -s 2 -d 1 -p ack -e 40 -c 1 -i 3 -a 1 -x {3.0 0.0 1 ------- null}
- -t 0.22464 -s 2 -d 1 -p ack -e 40 -c 1 -i 3 -a 1 -x {3.0 0.0 1 ------- null}
h -t 0.22464 -s 2 -d 1 -p ack -e 40 -c 1 -i 3 -a 1 -x {3.0 0.0 -1 ------- null}
r -t 0.2348 -s 2 -d 1 -p ack -e 40 -c 1 -i 3 -a 1 -x {3.0 0.0 1 ------- null}
+ -t 0.2348 -s 1 -d 0 -p ack -e 40 -c 1 -i 3 -a 1 -x {3.0 0.0 1 ------- null}
- -t 0.2348 -s 1 -d 0 -p ack -e 40 -c 1 -i 3 -a 1 -x {3.0 0.0 1 ------- null}
h -t 0.2348 -s 1 -d 0 -p ack -e 40 -c 1 -i 3 -a 1 -x {3.0 0.0 -1 ------- null}
r -t 0.24496 -s 1 -d 0 -p ack -e 40 -c 1 -i 3 -a 1 -x {3.0 0.0 1 ------- null}
+ -t 0.24496 -s 0 -d 1 -p tcp -e 1000 -c 1 -i 4 -a 1 -x {0.0 3.0 2 ------- null}
- -t 0.24496 -s 0 -d 1 -p tcp -e 1000 -c 1 -i 4 -a 1 -x {0.0 3.0 2 ------- null}
h -t 0.24496 -s 0 -d 1 -p tcp -e 1000 -c 1 -i 4 -a 1 -x {0.0 3.0 -1 ------- null}
+ -t 0.24496 -s 0 -d 1 -p tcp -e 1000 -c 1 -i 5 -a 1 -x {0.0 3.0 3 ------- null}
+ -t 0.24496 -s 0 -d 1 -p tcp -e 1000 -c 1 -i 6 -a 1 -x {0.0 3.0 4 ------- null}
- -t 0.24896 -s 0 -d 1 -p tcp -e 1000 -c 1 -i 5 -a 1 -x {0.0 3.0 3 ------- null}
h -t 0.24896 -s 0 -d 1 -p tcp -e 1000 -c 1 -i 5 -a 1 -x {0.0 3.0 -1 ------- null}
- -t 0.25296 -s 0 -d 1 -p tcp -e 1000 -c 1 -i 6 -a 1 -x {0.0 3.0 4 ------- null}
h -t 0.25296 -s 0 -d 1 -p tcp -e 1000 -c 1 -i 6 -a 1 -x {0.0 3.0 -1 ------- null}
r -t 0.25896 -s 0 -d 1 -p tcp -e 1000 -c 1 -i 4 -a 1 -x {0.0 3.0 2 ------- null}
+ -t 0.25896 -s 1 -d 2 -p tcp -e 1000 -c 1 -i 4 -a 1 -x {0.0 3.0 2 ------- null}
- -t 0.25896 -s 1 -d 2 -p tcp -e 1000 -c 1 -i 4 -a 1 -x {0.0 3.0 2 ------- null}
h -t 0.25896 -s 1 -d 2 -p tcp -e 1000 -c 1 -i 4 -a 1 -x {0.0 3.0 -1 ------- null}
r -t 0.26296 -s 0 -d 1 -p tcp -e 1000 -c 1 -i 5 -a 1 -x {0.0 3.0 3 ------- null}
+ -t 0.26296 -s 1 -d 2 -p tcp -e 1000 -c 1 -i 5 -a 1 -x {0.0 3.0 3 ------- null}
- -t 0.26296 -s 1 -d 2 -p tcp -e 1000 -c 1 -i 5 -a 1 -x {0.0 3.0 3 ------- null}
h -t 0.26296 -s 1 -d 2 -p tcp -e 1000 -c 1 -i 5 -a 1 -x {0.0 3.0 -1 ------- null}
r -t 0.26696 -s 0 -d 1 -p tcp -e 1000 -c 1 -i 6 -a 1 -x {0.0 3.0 4 ------- null}
+ -t 0.26696 -s 1 -d 2 -p tcp -e 1000 -c 1 -i 6 -a 1 -x {0.0 3.0 4 ------- null}
- -t 0.26696 -s 1 -d 2 -p tcp -e 1000 -c 1 -i 6 -a 1 -x {0.0 3.0 4 ------- null}
h -t 0.26696 -s 1 -d 2 -p tcp -e 1000 -c 1 -i 6 -a 1 -x {0.0 3.0 -1 ------- null}
r -t 0.27296 -s 1 -d 2 -p tcp -e 1000 -c 1 -i 4 -a 1 -x {0.0 3.0 2 ------- null}
+ -t 0.27296 -s 2 -d 3 -p tcp -e 1000 -c 1 -i 4 -a 1 -x {0.0 3.0 2 ------- null}
- -t 0.27296 -s 2 -d 3 -p tcp -e 1000 -c 1 -i 4 -a 1 -x {0.0 3.0 2 ------- null}
h -t 0.27296 -s 2 -d 3 -p tcp -e 1000 -c 1 -i 4 -a 1 -x {0.0 3.0 -1 ------- null}
r -t 0.27696 -s 1 -d 2 -p tcp -e 1000 -c 1 -i 5 -a 1 -x {0.0 3.0 3 ------- null}
+ -t 0.27696 -s 2 -d 3 -p tcp -e 1000 -c 1 -i 5 -a 1 -x {0.0 3.0 3 ------- null}
- -t 0.27696 -s 2 -d 3 -p tcp -e 1000 -c 1 -i 5 -a 1 -x {0.0 3.0 3 ------- null}
h -t 0.27696 -s 2 -d 3 -p tcp -e 1000 -c 1 -i 5 -a 1 -x {0.0 3.0 -1 ------- null}
r -t 0.28096 -s 1 -d 2 -p tcp -e 1000 -c 1 -i 6 -a 1 -x {0.0 3.0 4 ------- null}
+ -t 0.28096 -s 2 -d 3 -p tcp -e 1000 -c 1 -i 6 -a 1 -x {0.0 3.0 4 ------- null}
- -t 0.28096 -s 2 -d 3 -p tcp -e 1000 -c 1 -i 6 -a 1 -x {0.0 3.0 4 ------- null}
h -t 0.28096 -s 2 -d 3 -p tcp -e 1000 -c 1 -i 6 -a 1 -x {0.0 3.0 -1 ------- null}
r -t 0.28696 -s 2 -d 3 -p tcp -e 1000 -c 1 -i 4 -a 1 -x {0.0 3.0 2 ------- null}
+ -t 0.28696 -s 3 -d 2 -p ack -e 40 -c 1 -i 7 -a 1 -x {3.0 0.0 2 ------- null}
- -t 0.28696 -s 3 -d 2 -p ack -e 40 -c 1 -i 7 -a 1 -x {3.0 0.0 2 ------- null}
h -t 0.28696 -s 3 -d 2 -p ack -e 40 -c 1 -i 7 -a 1 -x {3.0 0.0 -1 ------- null}
r -t 0.29096 -s 2 -d 3 -p tcp -e 1000 -c 1 -i 5 -a 1 -x {0.0 3.0 3 ------- null}
+ -t 0.29096 -s 3 -d 2 -p ack -e 40 -c 1 -i 8 -a 1 -x {3.0 0.0 3 ------- null}
- -t 0.29096 -s 3 -d 2 -p ack -e 40 -c 1 -i 8 -a 1 -x {3.0 0.0 3 ------- null}
h -t 0.29096 -s 3 -d 2 -p ack -e 40 -c 1 -i 8 -a 1 -x {3.0 0.0 -1 ------- null}
r -t 0.29496 -s 2 -d 3 -p tcp -e 1000 -c 1 -i 6 -a 1 -x {0.0 3.0 4 ------- null}
+ -t 0.29496 -s 3 -d 2 -p ack -e 40 -c 1 -i 9 -a 1 -x {3.0 0.0 4 ------- null}
- -t 0.29496 -s 3 -d 2 -p ack -e 40 -c 1 -i 9 -a 1 -x {3.0 0.0 4 ------- null}
h -t 0.29496 -s 3 -d 2 -p ack -e 40 -c 1 -i 9 -a 1 -x {3.0 0.0 -1 ------- null}
r -t 0.29712 -s 3 -d 2 -p ack -e 40 -c 1 -i 7 -a 1 -x {3.0 0.0 2 ------- null}
+ -t 0.29712 -s 2 -d 1 -p ack -e 40 -c 1 -i 7 -a 1 -x {3.0 0.0 2 ------- null}
- -t 0.29712 -s 2 -d 1 -p ack -e 40 -c 1 -i 7 -a 1 -x {3.0 0.0 2 ------- null}
h -t 0.29712 -s 2 -d 1 -p ack -e 40 -c 1 -i 7 -a 1 -x {3.0 0.0 -1 ------- null}
r -t 0.30112 -s 3 -d 2 -p ack -e 40 -c 1 -i 8 -a 1 -x {3.0 0.0 3 ------- null}
+ -t 0.30112 -s 2 -d 1 -p ack -e 40 -c 1 -i 8 -a 1 -x {3.0 0.0 3 ------- null}
- -t 0.30112 -s 2 -d 1 -p ack -e 40 -c 1 -i 8 -a 1 -x {3.0 0.0 3 ------- null}
h -t 0.30112 -s 2 -d 1 -p ack -e 40 -c 1 -i 8 -a 1 -x {3.0 0.0 -1 ------- null}
r -t 0.30512 -s 3 -d 2 -p ack -e 40 -c 1 -i 9 -a 1 -x {3.0 0.0 4 ------- null}
+ -t 0.30512 -s 2 -d 1 -p ack -e 40 -c 1 -i 9 -a 1 -x {3.0 0.0 4 ------- null}
- -t 0.30512 -s 2 -d 1 -p ack -e 40 -c 1 -i 9 -a 1 -x {3.0 0.0 4 ------- null}
h -t 0.30512 -s 2 -d 1 -p ack -e 40 -c 1 -i 9 -a 1 -x {3.0 0.0 -1 ------- null}
r -t 0.30728 -s 2 -d 1 -p ack -e 40 -c 1 -i 7 -a 1 -x {3.0 0.0 2 ------- null}
+ -t 0.30728 -s 1 -d 0 -p ack -e 40 -c 1 -i 7 -a 1 -x {3.0 0.0 2 ------- null}
- -t 0.30728 -s 1 -d 0 -p ack -e 40 -c 1 -i 7 -a 1 -x {3.0 0.0 2 ------- null}
h -t 0.30728 -s 1 -d 0 -p ack -e 40 -c 1 -i 7 -a 1 -x {3.0 0.0 -1 ------- null}
r -t 0.31128 -s 2 -d 1 -p ack -e 40 -c 1 -i 8 -a 1 -x {3.0 0.0 3 ------- null}
+ -t 0.31128 -s 1 -d 0 -p ack -e 40 -c 1 -i 8 -a 1 -x {3.0 0.0 3 ------- null}
- -t 0.31128 -s 1 -d 0 -p ack -e 40 -c 1 -i 8 -a 1 -x {3.0 0.0 3 ------- null}
h -t 0.31128 -s 1 -d 0 -p ack -e 40 -c 1 -i 8 -a 1 -x {3.0 0.0 -1 ------- null}
r -t 0.31528 -s 2 -d 1 -p ack -e 40 -c 1 -i 9 -a 1 -x {3.0 0.0 4 ------- null}
+ -t 0.31528 -s 1 -d 0 -p ack -e 40 -c 1 -i 9 -a 1 -x {3.0 0.0 4 ------- null}
- -t 0.31528 -s 1 -d 0 -p ack -e 40 -c 1 -i 9 -a 1 -x {3.0 0.0 4 ------- null}
h -t 0.31528 -s 1 -d 0 -p ack -e 40 -c 1 -i 9 -a 1 -x {3.0 0.0 -1 ------- null}
r -t 0.31744 -s 1 -d 0 -p ack -e 40 -c 1 -i 7 -a 1 -x {3.0 0.0 2 ------- null}
+ -t 0.31744 -s 0 -d 1 -p tcp -e 1000 -c 1 -i 10 -a 1 -x {0.0 3.0 5 ------- null}
- -t 0.31744 -s 0 -d 1 -p tcp -e 1000 -c 1 -i 10 -a 1 -x {0.0 3.0 5 ------- null}
h -t 0.31744 -s 0 -d 1 -p tcp -e 1000 -c 1 -i 10 -a 1 -x {0.0 3.0 -1 ------- null}
r -t 0.32144 -s 1 -d 0 -p ack -e 40 -c 1 -i 8 -a 1 -x {3.0 0.0 3 ------- null}
+ -t 0.32144 -s 0 -d 1 -p tcp -e 1000 -c 1 -i 11 -a 1 -x {0.0 3.0 6 ------- null}
- -t 0.32144 -s 0 -d 1 -p tcp -e 1000 -c 1 -i 11 -a 1 -x {0.0 3.0 6 ------- null}
h -t 0.32144 -s 0 -d 1 -p tcp -e 1000 -c 1 -i 11 -a 1 -x {0.0 3.0 -1 ------- null}
r -t 0.32544 -s 1 -d 0 -p ack -e 40 -c 1 -i 9 -a 1 -x {3.0 0.0 4 ------- null}
+ -t 0.32544 -s 0 -d 1 -p tcp -e 1000 -c 1 -i 12 -a 1 -x {0.0 3.0 7 ------- null}
- -t 0.32544 -s 0 -d 1 -p tcp -e 1000 -c 1 -i 12 -a 1 -x {0.0 3.0 7 ------- null}
h -t 0.32544 -s 0 -d 1 -p tcp -e 1000 -c 1 -i 12 -a 1 -x {0.0 3.0 -1 ------- null}
r -t 0.33144 -s 0 -d 1 -p tcp -e 1000 -c 1 -i 10 -a 1 -x {0.0 3.0 5 ------- null}
+ -t 0.33144 -s 1 -d 2 -p tcp -e 1000 -c 1 -i 10 -a 1 -x {0.0 3.0 5 ------- null}
- -t 0.33144 -s 1 -d 2 -p tcp -e 1000 -c 1 -i 10 -a 1 -x {0.0 3.0 5 ------- null}
h -t 0.33144 -s 1 -d 2 -p tcp -e 1000 -c 1 -i 10 -a 1 -x {0.0 3.0 -1 ------- null}
r -t 0.33544 -s 0 -d 1 -p tcp -e 1000 -c 1 -i 11 -a 1 -x {0.0 3.0 6 ------- null}
+ -t 0.33544 -s 1 -d 2 -p tcp -e 1000 -c 1 -i 11 -a 1 -x {0.0 3.0 6 ------- null}
- -t 0.33544 -s 1 -d 2 -p tcp -e 1000 -c 1 -i 11 -a 1 -x {0.0 3.0 6 ------- null}
h -t 0.33544 -s 1 -d 2 -p tcp -e 1000 -c 1 -i 11 -a 1 -x {0.0 3.0 -1 ------- null}
r -t 0.33944 -s 0 -d 1 -p tcp -e 1000 -c 1 -i 12 -a 1 -x {0.0 3.0 7 ------- null}
+ -t 0.33944 -s 1 -d 2 -p tcp -e 1000 -c 1 -i 12 -a 1 -x {0.0 3.0 7 ------- null}
- -t 0.33944 -s 1 -d 2 -p tcp -e 1000 -c 1 -i 12 -a 1 -x {0.0 3.0 7 ------- null}
h -t 0.33944 -s 1 -d 2 -p tcp -e 1000 -c 1 -i 12 -a 1 -x {0.0 3.0 -1 ------- null}
r -t 0.34544 -s 1 -d 2 -p tcp -e 1000 -c 1 -i 10 -a 1 -x {0.0 3.0 5 ------- null}
+ -t 0.34544 -s 2 -d 3 -p tcp -e 1000 -c 1 -i 10 -a 1 -x {0.0 3.0 5 ------- null}
- -t 0.34544 -s 2 -d 3 -p tcp -e 1000 -c 1 -i 10 -a 1 -x {0.0 3.0 5 ------- null}
h -t 0.34544 -s 2 -d 3 -p tcp -e 1000 -c 1 -i 10 -a 1 -x {0.0 3.0 -1 ------- null}
r -t 0.34944 -s 1 -d 2 -p tcp -e 1000 -c 1 -i 11 -a 1 -x {0.0 3.0 6 ------- null}
+ -t 0.34944 -s 2 -d 3 -p tcp -e 1000 -c 1 -i 11 -a 1 -x {0.0 3.0 6 ------- null}
- -t 0.34944 -s 2 -d 3 -p tcp -e 1000 -c 1 -i 11 -a 1 -x {0.0 3.0 6 ------- null}
h -t 0.34944 -s 2 -d 3 -p tcp -e 1000 -c 1 -i 11 -a 1 -x {0.0 3.0 -1 ------- null}
r -t 0.35344 -s 1 -d 2 -p tcp -e 1000 -c 1 -i 12 -a 1 -x {0.0 3.0 7 ------- null}
+ -t 0.35344 -s 2 -d 3 -p tcp -e 1000 -c 1 -i 12 -a 1 -x {0.0 3.0 7 ------- null}
- -t 0.35344 -s 2 -d 3 -p tcp -e 1000 -c 1 -i 12 -a 1 -x {0.0 3.0 7 ------- null}
h -t 0.35344 -s 2 -d 3 -p tcp -e 1000 -c 1 -i 12 -a 1 -x {0.0 3.0 -1 ------- null}
r -t 0.35944 -s 2 -d 3 -p tcp -e 1000 -c 1 -i 10 -a 1 -x {0.0 3.0 5 ------- null}
+ -t 0.35944 -s 3 -d 2 -p ack -e 40 -c 1 -i 13 -a 1 -x {3.0 0.0 5 ------- null}
- -t 0.35944 -s 3 -d 2 -p ack -e 40 -c 1 -i 13 -a 1 -x {3.0 0.0 5 ------- null}
h -t 0.35944 -s 3 -d 2 -p ack -e 40 -c 1 -i 13 -a 1 -x {3.0 0.0 -1 ------- null}
r -t 0.36344 -s 2 -d 3 -p tcp -e 1000 -c 1 -i 11 -a 1 -x {0.0 3.0 6 ------- null}
+ -t 0.36344 -s 3 -d 2 -p ack -e 40 -c 1 -i 14 -a 1 -x {3.0 0.0 6 ------- null}
- -t 0.36344 -s 3 -d 2 -p ack -e 40 -c 1 -i 14 -a 1 -x {3.0 0.0 6 ------- null}
h -t 0.36344 -s 3 -d 2 -p ack -e 40 -c 1 -i 14 -a 1 -x {3.0 0.0 -1 ------- null}
r -t 0.36744 -s 2 -d 3 -p tcp -e 1000 -c 1 -i 12 -a 1 -x {0.0 3.0 7 ------- null}
+ -t 0.36744 -s 3 -d 2 -p ack -e 40 -c 1 -i 15 -a 1 -x {3.0 0.0 7 ------- null}
- -t 0.36744 -s 3 -d 2 -p ack -e 40 -c 1 -i 15 -a 1 -x {3.0 0.0 7 ------- null}
h -t 0.36744 -s 3 -d 2 -p ack -e 40 -c 1 -i 15 -a 1 -x {3.0 0.0 -1 ------- null}
r -t 0.3696 -s 3 -d 2 -p ack -e 40 -c 1 -i 13 -a 1 -x {3.0 0.0 5 ------- null}
+ -t 0.3696 -s 2 -d 1 -p ack -e 40 -c 1 -i 13 -a 1 -x {3.0 0.0 5 ------- null}
- -t 0.3696 -s 2 -d 1 -p ack -e 40 -c 1 -i 13 -a 1 -x {3.0 0.0 5 ------- null}
h -t 0.3696 -s 2 -d 1 -p ack -e 40 -c 1 -i 13 -a 1 -x {3.0 0.0 -1 ------- null}
r -t 0.3736 -s 3 -d 2 -p ack -e 40 -c 1 -i 14 -a 1 -x {3.0 0.0 6 ------- null}
+ -t 0.3736 -s 2 -d 1 -p ack -e 40 -c 1 -i 14 -a 1 -x {3.0 0.0 6 ------- null}
- -t 0.3736 -s 2 -d 1 -p ack -e 40 -c 1 -i 14 -a 1 -x {3.0 0.0 6 ------- null}
h -t 0.3736 -s 2 -d 1 -p ack -e 40 -c 1 -i 14 -a 1 -x {3.0 0.0 -1 ------- null}
r -t 0.3776 -s 3 -d 2 -p ack -e 40 -c 1 -i 15 -a 1 -x {3.0 0.0 7 ------- null}
+ -t 0.3776 -s 2 -d 1 -p ack -e 40 -c 1 -i 15 -a 1 -x {3.0 0.0 7 ------- null}
- -t 0.3776 -s 2 -d 1 -p ack -e 40 -c 1 -i 15 -a 1 -x {3.0 0.0 7 ------- null}
h -t 0.3776 -s 2 -d 1 -p ack -e 40 -c 1 -i 15 -a 1 -x {3.0 0.0 -1 ------- null}
r -t 0.37976 -s 2 -d 1 -p ack -e 40 -c 1 -i 13 -a 1 -x {3.0 0.0 5 ------- null}
+ -t 0.37976 -s 1 -d 0 -p ack -e 40 -c 1 -i 13 -a 1 -x {3.0 0.0 5 ------- null}
- -t 0.37976 -s 1 -d 0 -p ack -e 40 -c 1 -i 13 -a 1 -x {3.0 0.0 5 ------- null}
h -t 0.37976 -s 1 -d 0 -p ack -e 40 -c 1 -i 13 -a 1 -x {3.0 0.0 -1 ------- null}
r -t 0.38376 -s 2 -d 1 -p ack -e 40 -c 1 -i 14 -a 1 -x {3.0 0.0 6 ------- null}
+ -t 0.38376 -s 1 -d 0 -p ack -e 40 -c 1 -i 14 -a 1 -x {3.0 0.0 6 ------- null}
- -t 0.38376 -s 1 -d 0 -p ack -e 40 -c 1 -i 14 -a 1 -x {3.0 0.0 6 ------- null}
h -t 0.38376 -s 1 -d 0 -p ack -e 40 -c 1 -i 14 -a 1 -x {3.0 0.0 -1 ------- null}
r -t 0.38776 -s 2 -d 1 -p ack -e 40 -c 1 -i 15 -a 1 -x {3.0 0.0 7 ------- null}
+ -t 0.38776 -s 1 -d 0 -p ack -e 40 -c 1 -i 15 -a 1 -x {3.0 0.0 7 ------- null}
- -t 0.38776 -s 1 -d 0 -p ack -e 40 -c 1 -i 15 -a 1 -x {3.0 0.0 7 ------- null}
h -t 0.38776 -s 1 -d 0 -p ack -e 40 -c 1 -i 15 -a 1 -x {3.0 0.0 -1 ------- null}
r -t 0.38992 -s 1 -d 0 -p ack -e 40 -c 1 -i 13 -a 1 -x {3.0 0.0 5 ------- null}
+ -t 0.38992 -s 0 -d 1 -p tcp -e 1000 -c 1 -i 16 -a 1 -x {0.0 3.0 8 ------- null}
- -t 0.38992 -s 0 -d 1 -p tcp -e 1000 -c 1 -i 16 -a 1 -x {0.0 3.0 8 ------- null}
h -t 0.38992 -s 0 -d 1 -p tcp -e 1000 -c 1 -i 16 -a 1 -x {0.0 3.0 -1 ------- null}
+ -t 0.38992 -s 0 -d 1 -p tcp -e 1000 -c 1 -i 17 -a 1 -x {0.0 3.0 9 ------- null}
r -t 0.39392 -s 1 -d 0 -p ack -e 40 -c 1 -i 14 -a 1 -x {3.0 0.0 6 ------- null}
+ -t 0.39392 -s 0 -d 1 -p tcp -e 1000 -c 1 -i 18 -a 1 -x {0.0 3.0 10 ------- null}
+ -t 0.39392 -s 0 -d 1 -p tcp -e 1000 -c 1 -i 19 -a 1 -x {0.0 3.0 11 ------- null}
- -t 0.39392 -s 0 -d 1 -p tcp -e 1000 -c 1 -i 17 -a 1 -x {0.0 3.0 9 ------- null}
h -t 0.39392 -s 0 -d 1 -p tcp -e 1000 -c 1 -i 17 -a 1 -x {0.0 3.0 -1 ------- null}
r -t 0.39792 -s 1 -d 0 -p ack -e 40 -c 1 -i 15 -a 1 -x {3.0 0.0 7 ------- null}
+ -t 0.39792 -s 0 -d 1 -p tcp -e 1000 -c 1 -i 20 -a 1 -x {0.0 3.0 12 ------- null}
+ -t 0.39792 -s 0 -d 1 -p tcp -e 1000 -c 1 -i 21 -a 1 -x {0.0 3.0 13 ------- null}
- -t 0.39792 -s 0 -d 1 -p tcp -e 1000 -c 1 -i 18 -a 1 -x {0.0 3.0 10 ------- null}
h -t 0.39792 -s 0 -d 1 -p tcp -e 1000 -c 1 -i 18 -a 1 -x {0.0 3.0 -1 ------- null}
- -t 0.40192 -s 0 -d 1 -p tcp -e 1000 -c 1 -i 19 -a 1 -x {0.0 3.0 11 ------- null}
h -t 0.40192 -s 0 -d 1 -p tcp -e 1000 -c 1 -i 19 -a 1 -x {0.0 3.0 -1 ------- null}
r -t 0.40392 -s 0 -d 1 -p tcp -e 1000 -c 1 -i 16 -a 1 -x {0.0 3.0 8 ------- null}
+ -t 0.40392 -s 1 -d 2 -p tcp -e 1000 -c 1 -i 16 -a 1 -x {0.0 3.0 8 ------- null}
- -t 0.40392 -s 1 -d 2 -p tcp -e 1000 -c 1 -i 16 -a 1 -x {0.0 3.0 8 ------- null}
h -t 0.40392 -s 1 -d 2 -p tcp -e 1000 -c 1 -i 16 -a 1 -x {0.0 3.0 -1 ------- null}
- -t 0.40592 -s 0 -d 1 -p tcp -e 1000 -c 1 -i 20 -a 1 -x {0.0 3.0 12 ------- null}
h -t 0.40592 -s 0 -d 1 -p tcp -e 1000 -c 1 -i 20 -a 1 -x {0.0 3.0 -1 ------- null}
r -t 0.40792 -s 0 -d 1 -p tcp -e 1000 -c 1 -i 17 -a 1 -x {0.0 3.0 9 ------- null}
+ -t 0.40792 -s 1 -d 2 -p tcp -e 1000 -c 1 -i 17 -a 1 -x {0.0 3.0 9 ------- null}
- -t 0.40792 -s 1 -d 2 -p tcp -e 1000 -c 1 -i 17 -a 1 -x {0.0 3.0 9 ------- null}
h -t 0.40792 -s 1 -d 2 -p tcp -e 1000 -c 1 -i 17 -a 1 -x {0.0 3.0 -1 ------- null}
- -t 0.40992 -s 0 -d 1 -p tcp -e 1000 -c 1 -i 21 -a 1 -x {0.0 3.0 13 ------- null}
h -t 0.40992 -s 0 -d 1 -p tcp -e 1000 -c 1 -i 21 -a 1 -x {0.0 3.0 -1 ------- null}
r -t 0.41192 -s 0 -d 1 -p tcp -e 1000 -c 1 -i 18 -a 1 -x {0.0 3.0 10 ------- null}
+ -t 0.41192 -s 1 -d 2 -p tcp -e 1000 -c 1 -i 18 -a 1 -x {0.0 3.0 10 ------- null}
- -t 0.41192 -s 1 -d 2 -p tcp -e 1000 -c 1 -i 18 -a 1 -x {0.0 3.0 10 ------- null}
h -t 0.41192 -s 1 -d 2 -p tcp -e 1000 -c 1 -i 18 -a 1 -x {0.0 3.0 -1 ------- null}
r -t 0.41592 -s 0 -d 1 -p tcp -e 1000 -c 1 -i 19 -a 1 -x {0.0 3.0 11 ------- null}
+ -t 0.41592 -s 1 -d 2 -p tcp -e 1000 -c 1 -i 19 -a 1 -x {0.0 3.0 11 ------- null}
- -t 0.41592 -s 1 -d 2 -p tcp -e 1000 -c 1 -i 19 -a 1 -x {0.0 3.0 11 ------- null}
h -t 0.41592 -s 1 -d 2 -p tcp -e 1000 -c 1 -i 19 -a 1 -x {0.0 3.0 -1 ------- null}
r -t 0.41792 -s 1 -d 2 -p tcp -e 1000 -c 1 -i 16 -a 1 -x {0.0 3.0 8 ------- null}
+ -t 0.41792 -s 2 -d 3 -p tcp -e 1000 -c 1 -i 16 -a 1 -x {0.0 3.0 8 ------- null}
- -t 0.41792 -s 2 -d 3 -p tcp -e 1000 -c 1 -i 16 -a 1 -x {0.0 3.0 8 ------- null}
h -t 0.41792 -s 2 -d 3 -p tcp -e 1000 -c 1 -i 16 -a 1 -x {0.0 3.0 -1 ------- null}
r -t 0.41992 -s 0 -d 1 -p tcp -e 1000 -c 1 -i 20 -a 1 -x {0.0 3.0 12 ------- null}
+ -t 0.41992 -s 1 -d 2 -p tcp -e 1000 -c 1 -i 20 -a 1 -x {0.0 3.0 12 ------- null}
- -t 0.41992 -s 1 -d 2 -p tcp -e 1000 -c 1 -i 20 -a 1 -x {0.0 3.0 12 ------- null}
h -t 0.41992 -s 1 -d 2 -p tcp -e 1000 -c 1 -i 20 -a 1 -x {0.0 3.0 -1 ------- null}
r -t 0.42192 -s 1 -d 2 -p tcp -e 1000 -c 1 -i 17 -a 1 -x {0.0 3.0 9 ------- null}
+ -t 0.42192 -s 2 -d 3 -p tcp -e 1000 -c 1 -i 17 -a 1 -x {0.0 3.0 9 ------- null}
- -t 0.42192 -s 2 -d 3 -p tcp -e 1000 -c 1 -i 17 -a 1 -x {0.0 3.0 9 ------- null}
h -t 0.42192 -s 2 -d 3 -p tcp -e 1000 -c 1 -i 17 -a 1 -x {0.0 3.0 -1 ------- null}
r -t 0.42392 -s 0 -d 1 -p tcp -e 1000 -c 1 -i 21 -a 1 -x {0.0 3.0 13 ------- null}
+ -t 0.42392 -s 1 -d 2 -p tcp -e 1000 -c 1 -i 21 -a 1 -x {0.0 3.0 13 ------- null}
- -t 0.42392 -s 1 -d 2 -p tcp -e 1000 -c 1 -i 21 -a 1 -x {0.0 3.0 13 ------- null}
h -t 0.42392 -s 1 -d 2 -p tcp -e 1000 -c 1 -i 21 -a 1 -x {0.0 3.0 -1 ------- null}
r -t 0.42592 -s 1 -d 2 -p tcp -e 1000 -c 1 -i 18 -a 1 -x {0.0 3.0 10 ------- null}
+ -t 0.42592 -s 2 -d 3 -p tcp -e 1000 -c 1 -i 18 -a 1 -x {0.0 3.0 10 ------- null}
- -t 0.42592 -s 2 -d 3 -p tcp -e 1000 -c 1 -i 18 -a 1 -x {0.0 3.0 10 ------- null}
h -t 0.42592 -s 2 -d 3 -p tcp -e 1000 -c 1 -i 18 -a 1 -x {0.0 3.0 -1 ------- null}
r -t 0.42992 -s 1 -d 2 -p tcp -e 1000 -c 1 -i 19 -a 1 -x {0.0 3.0 11 ------- null}
+ -t 0.42992 -s 2 -d 3 -p tcp -e 1000 -c 1 -i 19 -a 1 -x {0.0 3.0 11 ------- null}
- -t 0.42992 -s 2 -d 3 -p tcp -e 1000 -c 1 -i 19 -a 1 -x {0.0 3.0 11 ------- null}
h -t 0.42992 -s 2 -d 3 -p tcp -e 1000 -c 1 -i 19 -a 1 -x {0.0 3.0 -1 ------- null}
r -t 0.43192 -s 2 -d 3 -p tcp -e 1000 -c 1 -i 16 -a 1 -x {0.0 3.0 8 ------- null}
+ -t 0.43192 -s 3 -d 2 -p ack -e 40 -c 1 -i 22 -a 1 -x {3.0 0.0 8 ------- null}
- -t 0.43192 -s 3 -d 2 -p ack -e 40 -c 1 -i 22 -a 1 -x {3.0 0.0 8 ------- null}
h -t 0.43192 -s 3 -d 2 -p ack -e 40 -c 1 -i 22 -a 1 -x {3.0 0.0 -1 ------- null}
r -t 0.43392 -s 1 -d 2 -p tcp -e 1000 -c 1 -i 20 -a 1 -x {0.0 3.0 12 ------- null}
+ -t 0.43392 -s 2 -d 3 -p tcp -e 1000 -c 1 -i 20 -a 1 -x {0.0 3.0 12 ------- null}
- -t 0.43392 -s 2 -d 3 -p tcp -e 1000 -c 1 -i 20 -a 1 -x {0.0 3.0 12 ------- null}
h -t 0.43392 -s 2 -d 3 -p tcp -e 1000 -c 1 -i 20 -a 1 -x {0.0 3.0 -1 ------- null}
r -t 0.43592 -s 2 -d 3 -p tcp -e 1000 -c 1 -i 17 -a 1 -x {0.0 3.0 9 ------- null}
+ -t 0.43592 -s 3 -d 2 -p ack -e 40 -c 1 -i 23 -a 1 -x {3.0 0.0 9 ------- null}
- -t 0.43592 -s 3 -d 2 -p ack -e 40 -c 1 -i 23 -a 1 -x {3.0 0.0 9 ------- null}
h -t 0.43592 -s 3 -d 2 -p ack -e 40 -c 1 -i 23 -a 1 -x {3.0 0.0 -1 ------- null}
r -t 0.43792 -s 1 -d 2 -p tcp -e 1000 -c 1 -i 21 -a 1 -x {0.0 3.0 13 ------- null}
+ -t 0.43792 -s 2 -d 3 -p tcp -e 1000 -c 1 -i 21 -a 1 -x {0.0 3.0 13 ------- null}
- -t 0.43792 -s 2 -d 3 -p tcp -e 1000 -c 1 -i 21 -a 1 -x {0.0 3.0 13 ------- null}
h -t 0.43792 -s 2 -d 3 -p tcp -e 1000 -c 1 -i 21 -a 1 -x {0.0 3.0 -1 ------- null}
r -t 0.43992 -s 2 -d 3 -p tcp -e 1000 -c 1 -i 18 -a 1 -x {0.0 3.0 10 ------- null}
+ -t 0.43992 -s 3 -d 2 -p ack -e 40 -c 1 -i 24 -a 1 -x {3.0 0.0 10 ------- null}
- -t 0.43992 -s 3 -d 2 -p ack -e 40 -c 1 -i 24 -a 1 -x {3.0 0.0 10 ------- null}
h -t 0.43992 -s 3 -d 2 -p ack -e 40 -c 1 -i 24 -a 1 -x {3.0 0.0 -1 ------- null}
r -t 0.44208 -s 3 -d 2 -p ack -e 40 -c 1 -i 22 -a 1 -x {3.0 0.0 8 ------- null}
+ -t 0.44208 -s 2 -d 1 -p ack -e 40 -c 1 -i 22 -a 1 -x {3.0 0.0 8 ------- null}
- -t 0.44208 -s 2 -d 1 -p ack -e 40 -c 1 -i 22 -a 1 -x {3.0 0.0 8 ------- null}
h -t 0.44208 -s 2 -d 1 -p ack -e 40 -c 1 -i 22 -a 1 -x {3.0 0.0 -1 ------- null}
r -t 0.44392 -s 2 -d 3 -p tcp -e 1000 -c 1 -i 19 -a 1 -x {0.0 3.0 11 ------- null}
+ -t 0.44392 -s 3 -d 2 -p ack -e 40 -c 1 -i 25 -a 1 -x {3.0 0.0 11 ------- null}
- -t 0.44392 -s 3 -d 2 -p ack -e 40 -c 1 -i 25 -a 1 -x {3.0 0.0 11 ------- null}
h -t 0.44392 -s 3 -d 2 -p ack -e 40 -c 1 -i 25 -a 1 -x {3.0 0.0 -1 ------- null}
r -t 0.44608 -s 3 -d 2 -p ack -e 40 -c 1 -i 23 -a 1 -x {3.0 0.0 9 ------- null}
+ -t 0.44608 -s 2 -d 1 -p ack -e 40 -c 1 -i 23 -a 1 -x {3.0 0.0 9 ------- null}
- -t 0.44608 -s 2 -d 1 -p ack -e 40 -c 1 -i 23 -a 1 -x {3.0 0.0 9 ------- null}
h -t 0.44608 -s 2 -d 1 -p ack -e 40 -c 1 -i 23 -a 1 -x {3.0 0.0 -1 ------- null}
r -t 0.44792 -s 2 -d 3 -p tcp -e 1000 -c 1 -i 20 -a 1 -x {0.0 3.0 12 ------- null}
+ -t 0.44792 -s 3 -d 2 -p ack -e 40 -c 1 -i 26 -a 1 -x {3.0 0.0 12 ------- null}
- -t 0.44792 -s 3 -d 2 -p ack -e 40 -c 1 -i 26 -a 1 -x {3.0 0.0 12 ------- null}
h -t 0.44792 -s 3 -d 2 -p ack -e 40 -c 1 -i 26 -a 1 -x {3.0 0.0 -1 ------- null}
r -t 0.45008 -s 3 -d 2 -p ack -e 40 -c 1 -i 24 -a 1 -x {3.0 0.0 10 ------- null}
+ -t 0.45008 -s 2 -d 1 -p ack -e 40 -c 1 -i 24 -a 1 -x {3.0 0.0 10 ------- null}
- -t 0.45008 -s 2 -d 1 -p ack -e 40 -c 1 -i 24 -a 1 -x {3.0 0.0 10 ------- null}
h -t 0.45008 -s 2 -d 1 -p ack -e 40 -c 1 -i 24 -a 1 -x {3.0 0.0 -1 ------- null}
r -t 0.45192 -s 2 -d 3 -p tcp -e 1000 -c 1 -i 21 -a 1 -x {0.0 3.0 13 ------- null}
+ -t 0.45192 -s 3 -d 2 -p ack -e 40 -c 1 -i 27 -a 1 -x {3.0 0.0 13 ------- null}
- -t 0.45192 -s 3 -d 2 -p ack -e 40 -c 1 -i 27 -a 1 -x {3.0 0.0 13 ------- null}
h -t 0.45192 -s 3 -d 2 -p ack -e 40 -c 1 -i 27 -a 1 -x {3.0 0.0 -1 ------- null}
r -t 0.45224 -s 2 -d 1 -p ack -e 40 -c 1 -i 22 -a 1 -x {3.0 0.0 8 ------- null}
+ -t 0.45224 -s 1 -d 0 -p ack -e 40 -c 1 -i 22 -a 1 -x {3.0 0.0 8 ------- null}
- -t 0.45224 -s 1 -d 0 -p ack -e 40 -c 1 -i 22 -a 1 -x {3.0 0.0 8 ------- null}
h -t 0.45224 -s 1 -d 0 -p ack -e 40 -c 1 -i 22 -a 1 -x {3.0 0.0 -1 ------- null}
r -t 0.45408 -s 3 -d 2 -p ack -e 40 -c 1 -i 25 -a 1 -x {3.0 0.0 11 ------- null}
+ -t 0.45408 -s 2 -d 1 -p ack -e 40 -c 1 -i 25 -a 1 -x {3.0 0.0 11 ------- null}
- -t 0.45408 -s 2 -d 1 -p ack -e 40 -c 1 -i 25 -a 1 -x {3.0 0.0 11 ------- null}
h -t 0.45408 -s 2 -d 1 -p ack -e 40 -c 1 -i 25 -a 1 -x {3.0 0.0 -1 ------- null}
r -t 0.45624 -s 2 -d 1 -p ack -e 40 -c 1 -i 23 -a 1 -x {3.0 0.0 9 ------- null}
+ -t 0.45624 -s 1 -d 0 -p ack -e 40 -c 1 -i 23 -a 1 -x {3.0 0.0 9 ------- null}
- -t 0.45624 -s 1 -d 0 -p ack -e 40 -c 1 -i 23 -a 1 -x {3.0 0.0 9 ------- null}
h -t 0.45624 -s 1 -d 0 -p ack -e 40 -c 1 -i 23 -a 1 -x {3.0 0.0 -1 ------- null}
r -t 0.45808 -s 3 -d 2 -p ack -e 40 -c 1 -i 26 -a 1 -x {3.0 0.0 12 ------- null}
+ -t 0.45808 -s 2 -d 1 -p ack -e 40 -c 1 -i 26 -a 1 -x {3.0 0.0 12 ------- null}
- -t 0.45808 -s 2 -d 1 -p ack -e 40 -c 1 -i 26 -a 1 -x {3.0 0.0 12 ------- null}
h -t 0.45808 -s 2 -d 1 -p ack -e 40 -c 1 -i 26 -a 1 -x {3.0 0.0 -1 ------- null}
r -t 0.46024 -s 2 -d 1 -p ack -e 40 -c 1 -i 24 -a 1 -x {3.0 0.0 10 ------- null}
+ -t 0.46024 -s 1 -d 0 -p ack -e 40 -c 1 -i 24 -a 1 -x {3.0 0.0 10 ------- null}
- -t 0.46024 -s 1 -d 0 -p ack -e 40 -c 1 -i 24 -a 1 -x {3.0 0.0 10 ------- null}
h -t 0.46024 -s 1 -d 0 -p ack -e 40 -c 1 -i 24 -a 1 -x {3.0 0.0 -1 ------- null}
r -t 0.46208 -s 3 -d 2 -p ack -e 40 -c 1 -i 27 -a 1 -x {3.0 0.0 13 ------- null}
+ -t 0.46208 -s 2 -d 1 -p ack -e 40 -c 1 -i 27 -a 1 -x {3.0 0.0 13 ------- null}
- -t 0.46208 -s 2 -d 1 -p ack -e 40 -c 1 -i 27 -a 1 -x {3.0 0.0 13 ------- null}
h -t 0.46208 -s 2 -d 1 -p ack -e 40 -c 1 -i 27 -a 1 -x {3.0 0.0 -1 ------- null}
r -t 0.4624 -s 1 -d 0 -p ack -e 40 -c 1 -i 22 -a 1 -x {3.0 0.0 8 ------- null}
+ -t 0.4624 -s 0 -d 1 -p tcp -e 1000 -c 1 -i 28 -a 1 -x {0.0 3.0 14 ------- null}
- -t 0.4624 -s 0 -d 1 -p tcp -e 1000 -c 1 -i 28 -a 1 -x {0.0 3.0 14 ------- null}
h -t 0.4624 -s 0 -d 1 -p tcp -e 1000 -c 1 -i 28 -a 1 -x {0.0 3.0 -1 ------- null}
r -t 0.46424 -s 2 -d 1 -p ack -e 40 -c 1 -i 25 -a 1 -x {3.0 0.0 11 ------- null}
+ -t 0.46424 -s 1 -d 0 -p ack -e 40 -c 1 -i 25 -a 1 -x {3.0 0.0 11 ------- null}
- -t 0.46424 -s 1 -d 0 -p ack -e 40 -c 1 -i 25 -a 1 -x {3.0 0.0 11 ------- null}
h -t 0.46424 -s 1 -d 0 -p ack -e 40 -c 1 -i 25 -a 1 -x {3.0 0.0 -1 ------- null}
r -t 0.4664 -s 1 -d 0 -p ack -e 40 -c 1 -i 23 -a 1 -x {3.0 0.0 9 ------- null}
+ -t 0.4664 -s 0 -d 1 -p tcp -e 1000 -c 1 -i 29 -a 1 -x {0.0 3.0 15 ------- null}
- -t 0.4664 -s 0 -d 1 -p tcp -e 1000 -c 1 -i 29 -a 1 -x {0.0 3.0 15 ------- null}
h -t 0.4664 -s 0 -d 1 -p tcp -e 1000 -c 1 -i 29 -a 1 -x {0.0 3.0 -1 ------- null}
r -t 0.46824 -s 2 -d 1 -p ack -e 40 -c 1 -i 26 -a 1 -x {3.0 0.0 12 ------- null}
+ -t 0.46824 -s 1 -d 0 -p ack -e 40 -c 1 -i 26 -a 1 -x {3.0 0.0 12 ------- null}
- -t 0.46824 -s 1 -d 0 -p ack -e 40 -c 1 -i 26 -a 1 -x {3.0 0.0 12 ------- null}
h -t 0.46824 -s 1 -d 0 -p ack -e 40 -c 1 -i 26 -a 1 -x {3.0 0.0 -1 ------- null}
r -t 0.4704 -s 1 -d 0 -p ack -e 40 -c 1 -i 24 -a 1 -x {3.0 0.0 10 ------- null}
+ -t 0.4704 -s 0 -d 1 -p tcp -e 1000 -c 1 -i 30 -a 1 -x {0.0 3.0 16 ------- null}
- -t 0.4704 -s 0 -d 1 -p tcp -e 1000 -c 1 -i 30 -a 1 -x {0.0 3.0 16 ------- null}
h -t 0.4704 -s 0 -d 1 -p tcp -e 1000 -c 1 -i 30 -a 1 -x {0.0 3.0 -1 ------- null}
r -t 0.47224 -s 2 -d 1 -p ack -e 40 -c 1 -i 27 -a 1 -x {3.0 0.0 13 ------- null}
+ -t 0.47224 -s 1 -d 0 -p ack -e 40 -c 1 -i 27 -a 1 -x {3.0 0.0 13 ------- null}
- -t 0.47224 -s 1 -d 0 -p ack -e 40 -c 1 -i 27 -a 1 -x {3.0 0.0 13 ------- null}
h -t 0.47224 -s 1 -d 0 -p ack -e 40 -c 1 -i 27 -a 1 -x {3.0 0.0 -1 ------- null}
r -t 0.4744 -s 1 -d 0 -p ack -e 40 -c 1 -i 25 -a 1 -x {3.0 0.0 11 ------- null}
+ -t 0.4744 -s 0 -d 1 -p tcp -e 1000 -c 1 -i 31 -a 1 -x {0.0 3.0 17 ------- null}
- -t 0.4744 -s 0 -d 1 -p tcp -e 1000 -c 1 -i 31 -a 1 -x {0.0 3.0 17 ------- null}
h -t 0.4744 -s 0 -d 1 -p tcp -e 1000 -c 1 -i 31 -a 1 -x {0.0 3.0 -1 ------- null}
r -t 0.4764 -s 0 -d 1 -p tcp -e 1000 -c 1 -i 28 -a 1 -x {0.0 3.0 14 ------- null}
+ -t 0.4764 -s 1 -d 2 -p tcp -e 1000 -c 1 -i 28 -a 1 -x {0.0 3.0 14 ------- null}
- -t 0.4764 -s 1 -d 2 -p tcp -e 1000 -c 1 -i 28 -a 1 -x {0.0 3.0 14 ------- null}
h -t 0.4764 -s 1 -d 2 -p tcp -e 1000 -c 1 -i 28 -a 1 -x {0.0 3.0 -1 ------- null}
r -t 0.4784 -s 1 -d 0 -p ack -e 40 -c 1 -i 26 -a 1 -x {3.0 0.0 12 ------- null}
+ -t 0.4784 -s 0 -d 1 -p tcp -e 1000 -c 1 -i 32 -a 1 -x {0.0 3.0 18 ------- null}
- -t 0.4784 -s 0 -d 1 -p tcp -e 1000 -c 1 -i 32 -a 1 -x {0.0 3.0 18 ------- null}
h -t 0.4784 -s 0 -d 1 -p tcp -e 1000 -c 1 -i 32 -a 1 -x {0.0 3.0 -1 ------- null}
r -t 0.4804 -s 0 -d 1 -p tcp -e 1000 -c 1 -i 29 -a 1 -x {0.0 3.0 15 ------- null}
+ -t 0.4804 -s 1 -d 2 -p tcp -e 1000 -c 1 -i 29 -a 1 -x {0.0 3.0 15 ------- null}
- -t 0.4804 -s 1 -d 2 -p tcp -e 1000 -c 1 -i 29 -a 1 -x {0.0 3.0 15 ------- null}
h -t 0.4804 -s 1 -d 2 -p tcp -e 1000 -c 1 -i 29 -a 1 -x {0.0 3.0 -1 ------- null}
r -t 0.4824 -s 1 -d 0 -p ack -e 40 -c 1 -i 27 -a 1 -x {3.0 0.0 13 ------- null}
+ -t 0.4824 -s 0 -d 1 -p tcp -e 1000 -c 1 -i 33 -a 1 -x {0.0 3.0 19 ------- null}